# vtk DataFile Version 3.0
Visualize mesh data
ASCII

DATASET UNSTRUCTURED_GRID
POINTS 1028 double
-0.18376094 1.45231402 -1.23266818
-0.36553586 1.44112313 -1.20871834
-0.30387446 1.38487184 -1.35289323
-0.00717328 1.45845520 -1.23370621
-0.11651368 1.39044380 -1.37061027
0.16831978 1.45339179 -1.23259664
0.06048105 1.38979352 -1.37501252
0.34094799 1.43877840 -1.22562595
0.23320317 1.38072360 -1.37298945
0.40156844 1.36377037 -1.36480433
-0.41674674 1.46607685 -1.03614097
-0.67457098 1.41012394 -1.04988975
-0.52845919 1.42874277 -1.15146291
-0.24429487 1.48354387 -1.08311264
-0.07364527 1.49399102 -1.08152049
0.10142208 1.49290800 -1.08287168
0.27819061 1.48089468 -1.07726356
0.51142269 1.41314840 -1.21695060
0.45346373 1.45722008 -1.06946282
0.63011479 1.41854954 -1.07997769
-0.42227313 1.44821239 -0.84740373
-0.56310749 1.43780017 -0.95587528
-0.29043275 1.47974253 -0.92419478
-0.13678221 1.49168289 -0.92008342
0.03042152 1.49569976 -0.92584057
0.20414062 1.48817468 -0.92724984
0.38401189 1.46719038 -0.91995439
0.56306320 1.43443942 -0.92094720
-0.58351606 1.40288198 -0.79954460
-0.24847046 1.44606221 -0.76506238
-0.42678225 1.39322245 -0.69706085
-0.06591496 1.45933199 -0.77107058
0.11346237 1.45952284 -0.77632879
0.29363179 1.44675720 -0.78049649
0.48146150 1.41573453 -0.77360998
0.37544060 1.37561405 -0.64823508
-0.30221409 1.36810887 -0.61882287
-0.13930857 1.38942206 -0.62965387
0.03102008 1.39532030 -0.63330185
0.20252445 1.39053428 -0.63891831
-0.38793150 1.29502130 -1.46584567
-0.54248518 1.27036071 -1.45736259
-0.48538354 1.16769576 -1.57887679
-0.21044861 1.30205142 -1.48523071
-0.30769485 1.19483745 -1.58466220
-0.03440628 1.29886913 -1.49990350
-0.13285470 1.19019771 -1.60498279
0.14038612 1.29302180 -1.50200433
0.04282514 1.18531597 -1.61246413
0.31535590 1.28010261 -1.49683776
0.21824934 1.17671037 -1.61048901
0.49178165 1.25996876 -1.48371273
0.39347050 1.16250074 -1.60056102
0.57106239 1.15383720 -1.57163662
-0.82072806 1.31588781 -1.24904820
-0.97408342 1.23209310 -1.29682654
-0.82063788 1.23220396 -1.39602062
-0.66584796 1.37526715 -1.22037013
-0.66976863 1.30296636 -1.36512345
-0.49448261 1.37175179 -1.32025582
0.56636357 1.33553874 -1.35647592
0.67955577 1.25440276 -1.43035921
0.68061316 1.36077893 -1.24740613
0.81251228 1.29730225 -1.29489648
0.84426910 1.19923127 -1.42735007
0.97680598 1.21833253 -1.31900525
-1.04552782 1.27846956 -1.01692075
-1.20881522 1.19130147 -1.06278751
-1.10843623 1.21636903 -1.18779954
-0.95405436 1.30267274 -1.13508388
-0.81288505 1.36531556 -1.07953964
0.78937536 1.36834323 -1.10984246
0.93102592 1.30400717 -1.16599394
1.09355605 1.21821141 -1.20363449
1.02627075 1.28615558 -1.03872649
1.18387747 1.20426822 -1.07108978
-0.99663347 1.27411211 -0.82624079
-1.14171922 1.22387910 -0.90833645
-0.89769834 1.33696830 -0.93596224
-0.74619824 1.38162398 -0.88860695
0.73310423 1.39128554 -0.92689659
0.88337779 1.34491551 -0.96829696
0.98269284 1.28698874 -0.85022146
1.13235223 1.23063469 -0.92026226
-1.12477529 1.18306506 -0.75167833
-0.85884911 1.29558671 -0.73622590
-0.98810476 1.19713688 -0.65508267
-0.71153575 1.33999264 -0.72541028
-0.55972511 1.33192372 -0.63499424
0.55430073 1.32989764 -0.62968230
0.65864694 1.37356675 -0.76972967
0.82767552 1.32296872 -0.77449101
1.12940741 1.18893600 -0.77007861
0.99004298 1.22096181 -0.69601902
-0.84932268 1.18724108 -0.56045127
-0.72585309 1.25345707 -0.58769220
-0.41881660 1.28272152 -0.52579078
-0.58353984 1.23110974 -0.50881580
-0.23262875 1.28647149 -0.49908423
-0.05834588 1.30190420 -0.50417688
0.11380521 1.30258203 -0.50738546
0.28049877 1.29373109 -0.51373836
0.44537008 1.27912819 -0.52752697
0.70067149 1.28147089 -0.61605260
0.57038176 1.19840491 -0.47050172
0.85301441 1.23367274 -0.62360269
-0.49587938 1.14924705 -0.40710741
-0.32801720 1.18107927 -0.40575427
-0.14096741 1.18934631 -0.39473158
0.03793709 1.19487131 -0.39576221
0.21080160 1.18648767 -0.39731717
0.38685349 1.17853558 -0.41239369
-0.38117778 1.06765413 -1.67606479
-0.51175916 0.99908072 -1.70064336
-0.50028074 0.86548340 -1.77750677
-0.22377855 1.06634772 -1.69433939
-0.33729815 0.92254758 -1.77025694
-0.05086998 1.06220913 -1.70561647
-0.16162270 0.93454361 -1.77801490
0.12358116 1.05691946 -1.70689863
0.02579571 0.92575234 -1.78672713
0.29907930 1.04632604 -1.70075971
0.20374008 0.91903508 -1.78373218
0.47646081 1.03604209 -1.68278128
0.38663542 0.91070014 -1.77072704
0.55608153 0.88540155 -1.75781280
-0.97431338 1.13517129 -1.43585142
-1.08372521 1.02105701 -1.49298140
-0.93595058 1.00797510 -1.57397026
-0.82579947 1.12280059 -1.51886058
-0.75773919 1.02375770 -1.62501860
-0.67469758 1.18399727 -1.51298672
-0.61698419 1.07555604 -1.62505478
0.72527373 1.13045537 -1.54820627
0.63993531 1.01338649 -1.66422957
0.88453352 1.07797730 -1.53660548
0.79981703 0.98567581 -1.63896364
1.01033020 1.10597587 -1.44852728
0.98456311 0.96059436 -1.58953851
1.11634755 0.98802930 -1.50455755
-1.26111138 1.11228168 -1.22923912
-1.35436523 0.99508274 -1.31834930
-1.23281407 1.01118863 -1.40694156
-1.12494791 1.12942564 -1.34160504
1.13727462 1.11730230 -1.34903884
1.25142038 1.00416005 -1.40042728
1.25222516 1.11929131 -1.22623624
1.36044502 1.00935555 -1.29069781
-1.34363854 1.10681713 -1.06481510
-1.42736781 1.01685286 -1.17638572
1.31258273 1.12845695 -1.05767261
1.41299784 1.04187024 -1.13574000
-1.27375638 1.14374709 -0.88603572
-1.40041614 1.06214404 -0.90880709
1.27646577 1.14394701 -0.89484000
1.42290068 1.05132353 -0.94891664
-1.25377107 1.09327996 -0.72469401
-1.37888646 1.01977134 -0.75003602
-1.13611591 1.08305407 -0.60505643
1.14780927 1.09410024 -0.62768963
1.26512682 1.09250319 -0.73656523
1.39143014 1.02665055 -0.78197080
-1.29032350 0.97052675 -0.59362611
-0.99228883 1.08180475 -0.51656276
-1.13364303 0.96581107 -0.48605067
-0.84686708 1.06493068 -0.43726206
-0.69023573 1.12732601 -0.43780082
0.72306234 1.16832113 -0.48751187
0.87446576 1.12443745 -0.50311479
1.01597810 1.11634159 -0.56632146
1.30031717 0.97790563 -0.60977468
1.15257263 0.97723645 -0.50658509
-1.00158405 0.94090199 -0.40355539
-0.85407960 0.93097413 -0.34240174
-0.70698434 0.98321962 -0.33262253
-0.38536555 1.04123056 -0.30643874
-0.55625308 1.02264786 -0.32335794
-0.22304264 1.07028019 -0.30829519
-0.04192695 1.07551277 -0.30324823
0.12791015 1.06527507 -0.29889190
0.30363765 1.06084049 -0.30950421
0.48315197 1.06928027 -0.34160531
0.55643195 0.92679274 -0.26457804
0.64394075 1.05666792 -0.36746931
0.80674845 1.02447045 -0.39104062
0.98575467 0.99976957 -0.44068176
-0.43833509 0.89871025 -0.22993559
-0.27180877 0.91612840 -0.21992683
-0.12279072 0.94862878 -0.22780854
0.03567867 0.93135113 -0.21631217
0.21000722 0.93032265 -0.22262603
0.38815156 0.93203259 -0.24088538
-0.85026085 0.89674532 -1.67960781
-0.94220024 0.76876199 -1.71791595
-0.76988989 0.76276064 -1.77022111
-0.66905975 0.90526295 -1.72378844
-0.60565042 0.74612892 -1.81294119
-0.41064298 0.74918401 -1.84165853
-0.25153354 0.78221357 -1.84394777
-0.08129507 0.80377597 -1.84333527
0.11262416 0.78064960 -1.85204494
0.29767996 0.78270769 -1.83998138
0.46607503 0.75202340 -1.83327377
0.63475907 0.72740060 -1.81493074
0.72373772 0.86147338 -1.73431313
0.89737439 0.85706633 -1.68717611
0.80300391 0.71513665 -1.78198528
0.96132052 0.72678077 -1.73089570
-1.19059229 0.89706558 -1.53662837
-1.27548897 0.77808398 -1.56939751
-1.12864184 0.74398845 -1.65995187
-1.03669679 0.88245142 -1.62066132
1.08612585 0.83017319 -1.63148999
1.21971238 0.72289789 -1.62914318
1.23608601 0.87752217 -1.52515197
1.35219324 0.76756161 -1.53014505
-1.48876297 0.89522195 -1.29952401
-1.51805735 0.76835370 -1.40186557
-1.36377299 0.87135422 -1.44450814
1.49666715 0.92890161 -1.23771945
1.39769375 0.88365543 -1.40567815
1.55044210 0.81098640 -1.32669279
-1.49420083 0.99661887 -1.02011578
-1.57098293 0.90503579 -1.13773285
1.53511822 0.95823181 -1.05260258
1.62255597 0.84721863 -1.15106767
-1.51145983 0.95131290 -0.83672363
-1.60979247 0.88744515 -0.95392992
1.53027129 0.94510776 -0.86739524
1.64116931 0.85516244 -0.95969905
-1.45184791 0.90080351 -0.66474196
-1.59137917 0.83459157 -0.76060528
1.47042000 0.91351014 -0.70236945
1.61607993 0.82016534 -0.78065227
-1.53162730 0.75782865 -0.60214421
-1.23514044 0.85968089 -0.46134919
-1.38381231 0.82141018 -0.52947029
1.25635850 0.84107614 -0.46056527
1.39434922 0.85836554 -0.56815413
1.54743803 0.77344948 -0.63191330
-1.28521800 0.72136819 -0.40352547
-1.10689211 0.80009931 -0.36032420
-0.76556975 0.81560898 -0.25312221
-0.94119585 0.79891819 -0.29653329
-0.60255229 0.86569262 -0.24094909
0.72534603 0.90454715 -0.28948998
0.89760095 0.89166003 -0.33274984
1.07778966 0.86867279 -0.38826323
0.97112900 0.75583911 -0.28563160
1.15274155 0.73574734 -0.34638548
-0.83741152 0.66383189 -0.20700985
-0.65263373 0.70442057 -0.17964470
-0.47720933 0.74749476 -0.16649073
-0.29723030 0.77459520 -0.15664357
-0.10560014 0.80272800 -0.15689480
0.09381458 0.79674250 -0.15402758
0.28212517 0.79347873 -0.16317403
0.45967385 0.78574818 -0.17976999
0.63069648 0.77692115 -0.20483422
0.80847824 0.75395823 -0.23583537
-0.17864424 0.63595128 -1.90126300
-0.32873228 0.60343188 -1.90063864
-0.22206530 0.44739377 -1.94800442
-0.01827310 0.67512763 -1.89294034
-0.06812680 0.50982982 -1.93985057
0.10244619 0.59050810 -1.91782385
0.09501864 0.44142818 -1.95453715
0.23258714 0.64733493 -1.89455962
0.25926533 0.47114795 -1.94049937
0.38488969 0.61106580 -1.89275467
-1.01446700 0.63927501 -1.74905622
-1.14070594 0.56084031 -1.73137128
-0.96892190 0.48639321 -1.81249881
-0.85358161 0.61443043 -1.80626494
-0.69699359 0.60124832 -1.84728140
-0.51065999 0.61320865 -1.87617731
0.55265462 0.58831263 -1.87739271
0.72887975 0.56998485 -1.85017264
0.90696669 0.56996298 -1.80620944
1.06866550 0.49163628 -1.77914459
1.07920837 0.65197700 -1.72104657
1.21835315 0.56667876 -1.69726980
-1.41364491 0.70785564 -1.52698529
-1.54914200 0.61073732 -1.48401186
-1.41729963 0.54874104 -1.60331577
-1.27475858 0.63254440 -1.64492166
[...]
CELL_DATA 2052
VECTORS FaceNormals double
-0.10887203 0.90941737 -0.40138127
-0.06788928 0.89754463 -0.43566579
-0.03397937 0.90560845 -0.42275140
-0.00764433 0.89797026 -0.43998975
0.02878606 0.90441593 -0.42567967
0.05223046 0.89652304 -0.43990729
0.09337849 0.90116722 -0.42329434
0.11112217 0.89425453 -0.43354433
-0.23443809 0.96828657 -0.08637071
-0.13783546 0.97364866 -0.18168566
-0.14867878 0.97150397 -0.18459321
-0.09097336 0.96681989 -0.23871145
-0.03514430 0.96969517 -0.24177708
-0.05741691 0.97236684 -0.22628748
0.02951137 0.96964535 -0.24272819
0.00428545 0.97420856 -0.22560876
0.09142521 0.96745201 -0.23596194
0.07315064 0.97188143 -0.22382016
0.15588065 0.89629847 -0.41515091
0.15606422 0.96154558 -0.22599570
0.14011923 0.96648972 -0.21509118
0.19726492 0.95787646 -0.20870848
-0.14157176 0.98590345 0.08917296
-0.17856355 0.98090636 -0.07705695
-0.10236644 0.99472911 -0.00592546
-0.18331607 0.97916884 0.08731320
-0.06101349 0.99809085 -0.00959186
-0.07751324 0.99699042 0.00134414
0.00606945 0.99986859 -0.01503180
-0.02384568 0.99970331 0.00496727
0.06826166 0.99755893 -0.01471496
0.04329157 0.99906084 0.00181229
0.13402337 0.99097078 -0.00382663
0.11551946 0.99326605 0.00882084
0.21340535 0.97693391 -0.00763500
0.17999612 0.98350212 0.01802736
-0.21429930 0.95885722 0.18619516
-0.09725378 0.96818549 0.23056139
-0.14759844 0.93028392 0.33583706
-0.16164263 0.92835388 0.33470991
-0.08149022 0.97050392 0.22689532
-0.06251683 0.96874595 0.24004776
-0.01588340 0.97551910 0.21934038
0.00577020 0.97266345 0.23214763
0.07406662 0.97065700 0.22877745
0.04401007 0.97632287 0.21179415
0.13468174 0.90501344 0.40349907
0.14979608 0.95971939 0.23769691
0.10486153 0.97198126 0.21037225
0.17671207 0.95943537 0.21967390
-0.09659445 0.89262985 0.44031974
-0.05198587 0.90568608 0.42074956
-0.08722412 0.89204426 0.44345123
0.01119288 0.90981867 0.41485503
-0.02189686 0.90069569 0.43389838
0.07390680 0.90963149 0.40878888
0.03921198 0.90296197 0.42792768
0.10048728 0.90082396 0.42239614
-0.15191397 0.71865788 -0.67856687
-0.13126781 0.71243210 -0.68935424
-0.10309385 0.72503357 -0.68095373
-0.06286305 0.70870737 -0.70269631
-0.04519551 0.71527353 -0.69738163
-0.01094365 0.70018988 -0.71387279
0.01525007 0.70912673 -0.70491611
0.04223015 0.69643804 -0.71637328
0.07292671 0.70592960 -0.70451763
0.09669699 0.69372218 -0.71372209
0.13223665 0.70361272 -0.69817090
0.14855801 0.69432814 -0.70415833
-0.30528046 0.82744241 -0.47132038
-0.29277549 0.83085111 -0.47325357
-0.25379369 0.86805393 -0.42669794
-0.18296165 0.81999828 -0.54233555
-0.16096007 0.81965269 -0.54978298
-0.23247582 0.87260666 -0.42954932
-0.15005890 0.82510926 -0.54468067
-0.09502671 0.81230060 -0.57544562
-0.13215864 0.90298945 -0.40883267
-0.03481206 0.80499370 -0.59226115
-0.07806961 0.81938234 -0.56790643
-0.01151031 0.81253217 -0.58280270
0.01961138 0.80114080 -0.59815450
0.04934762 0.80914022 -0.58553985
0.07657657 0.79810735 -0.59762922
0.10943061 0.80575591 -0.58205013
0.13472505 0.79485276 -0.59165721
0.16637749 0.80191308 -0.57380653
0.18850857 0.79189700 -0.58083015
0.27873102 0.82952924 -0.48393209
0.21128816 0.71231290 -0.66930385
0.27847657 0.80261509 -0.52750339
0.22822406 0.84110174 -0.49036889
0.30786745 0.79845873 -0.51737925
-0.42788772 0.88856953 -0.16539736
-0.43970935 0.88389183 -0.15934531
-0.37119747 0.86702769 -0.33237843
-0.37028476 0.86732485 -0.33262112
-0.30499190 0.91797843 -0.25356566
-0.30738796 0.91726684 -0.25324730
-0.26129325 0.94298359 -0.20617419
-0.26340737 0.94239776 -0.20616258
-0.18365327 0.91954152 -0.34744046
-0.19216397 0.91742242 -0.34843810
0.17365092 0.88808772 -0.42561198
0.20004164 0.88758527 -0.41494063
0.24511013 0.93688335 -0.24934033
0.24864338 0.93628942 -0.24806973
0.28775373 0.90557279 -0.31166602
0.32206116 0.89660511 -0.30393401
0.35698887 0.85650585 -0.37276892
0.42291727 0.88553072 -0.19229228
0.36558857 0.85448115 -0.36906227
0.42076024 0.88629742 -0.19348827
-0.38454751 0.91533456 0.11952347
-0.47541477 0.87951071 0.02101669
-0.33519336 0.93976458 -0.06699216
-0.42538703 0.89569165 0.12954670
-0.38919555 0.91988879 -0.04828501
-0.28809555 0.95741621 0.01884549
-0.31358246 0.94913454 0.02845465
-0.27739629 0.95963541 0.04638086
0.29561570 0.95487215 -0.02881911
0.24621022 0.96919139 0.00697004
0.37864514 0.92021522 -0.09915549
0.28666749 0.95749887 -0.03190083
0.32893279 0.93736358 -0.11468537
0.41733669 0.90403375 0.09248274
0.46146281 0.88715587 0.00255795
0.38575744 0.91866543 0.08511769
-0.44806391 0.85210879 0.27046136
-0.30641397 0.91851089 0.24989643
-0.38737709 0.83343038 0.39412281
-0.36700281 0.84139540 0.39668969
-0.29556576 0.90876318 0.29460205
-0.34573356 0.90319630 0.25437129
-0.27971044 0.91438867 0.29266949
-0.19819940 0.88929972 0.41214440
-0.22583409 0.95659561 0.18418416
-0.21535816 0.88500747 0.41277432
0.18039203 0.88224161 0.43486602
0.21964808 0.94517882 0.24164380
0.24710711 0.94289207 0.22336657
0.20077275 0.88272406 0.42483943
0.33907038 0.91892531 0.20151316
0.28461305 0.92824722 0.23948384
0.38184087 0.85606551 0.34835240
0.37086087 0.85998494 0.35055401
0.31104456 0.93023022 0.19473836
0.44092509 0.86256188 0.24813721
-0.29241193 0.80690919 0.51321811
-0.28449789 0.82477753 0.48867472
-0.31637553 0.79979504 0.51013177
-0.18480813 0.78451497 0.59193093
-0.20267827 0.78334137 0.58762047
-0.25129614 0.83110379 0.49610154
-0.10206924 0.79331402 0.60019559
-0.17282257 0.82396249 0.53964634
-0.12993881 0.83039951 0.54180491
-0.05368872 0.80243203 0.59432345
-0.06635431 0.80604641 0.58812099
-0.01583428 0.81527569 0.57885648
0.00781054 0.80760532 0.58967164
0.04162713 0.81735932 0.57462242
0.06521917 0.80862663 0.58469601
0.10107949 0.81649140 0.56844062
0.14932360 0.81275084 0.56315054
0.11980570 0.80819067 0.57660597
0.24270559 0.85994787 0.44898068
0.19625973 0.76562131 0.61262234
0.21522321 0.76346899 0.60892863
0.28739720 0.84466102 0.45160891
0.26887965 0.85682376 0.43995089
0.31268915 0.83952552 0.44432240
-0.14889422 0.70370004 0.69472064
-0.11344795 0.71426070 0.69062378
-0.13867681 0.70157805 0.69896851
-0.04261378 0.71239407 0.70048466
-0.07283855 0.69734403 0.71302584
0.01018846 0.71609933 0.69792402
-0.01763801 0.70364078 0.71033693
0.06448742 0.71443663 0.69672209
0.04056414 0.70509527 0.70795142
0.12091901 0.71627029 0.68726666
0.09209276 0.70429627 0.70390744
0.14216159 0.70848389 0.69126020
-0.13166313 0.48582579 -0.86408224
-0.11179441 0.51705394 -0.84862078
-0.09410245 0.52187945 -0.84781281
-0.07267124 0.50989626 -0.85716083
-0.04313469 0.52088802 -0.85253450
-0.01649967 0.50401962 -0.86353459
0.00930884 0.51479253 -0.85726425
0.03347518 0.50126798 -0.86464433
0.06090229 0.51264115 -0.85644029
0.08407209 0.49917899 -0.86241070
0.11594471 0.51347422 -0.85023588
0.13975419 0.49966374 -0.85487128
-0.31964050 0.65110651 -0.68839688
-0.26724389 0.61314947 -0.74338983
-0.33033558 0.64680286 -0.68740415
-0.23410729 0.63564109 -0.73563182
-0.22829339 0.63455662 -0.73839015
-0.19886300 0.65111975 -0.73245927
-0.17638200 0.70947213 -0.68230395
-0.13771951 0.59394591 -0.79262954
-0.16386143 0.59426080 -0.78740303
-0.08602616 0.61372690 -0.78481768
-0.12049219 0.62430698 -0.77183057
-0.07446127 0.61885051 -0.78197159
-0.03756171 0.60267662 -0.79710101
-0.01670327 0.61137203 -0.79116701
0.01222187 0.59742638 -0.80183062
0.03874421 0.60774831 -0.79318401
0.06392518 0.59455127 -0.80151254
0.11514391 0.59347639 -0.79657244
0.09387713 0.60540139 -0.79036463
0.16635987 0.50867615 -0.84473248
0.17179933 0.59956526 -0.78166904
0.15639759 0.60847846 -0.77800627
0.20856334 0.60753926 -0.76641854
0.22520689 0.59809565 -0.76913162
0.25411504 0.60424224 -0.75519326
0.28283739 0.58410415 -0.76080572
0.35389335 0.61810566 -0.70192941
0.32512900 0.62808693 -0.70696389
-0.45773190 0.73949860 -0.49358214
-0.49344848 0.71989562 -0.48811771
-0.39417309 0.69309977 -0.60352322
-0.40336423 0.68849005 -0.60272610
-0.36240946 0.76484155 -0.53261317
-0.34702944 0.76961644 -0.53596744
-0.29172789 0.72034013 -0.62928923
-0.26890861 0.72484574 -0.63426084
-0.23325687 0.76141284 -0.60484850
-0.24251824 0.75979511 -0.60323817
0.20975766 0.71324523 -0.66879217
0.27667914 0.69234514 -0.66641343
0.25110082 0.71401014 -0.65355788
0.30474531 0.69141539 -0.65503821
0.35001511 0.75055781 -0.56049300
0.36708388 0.74758825 -0.55349908
0.42053122 0.66908846 -0.61275944
0.39530941 0.67952578 -0.61804141
0.49952755 0.72164186 -0.47927577
0.45920227 0.74010942 -0.49129556
-0.53997268 0.80546285 -0.24425212
-0.54855749 0.73687887 -0.39508759
-0.51418515 0.82609109 -0.23062336
-0.50257749 0.83146363 -0.23682080
-0.43666994 0.80243193 -0.40672147
-0.42692016 0.80608641 -0.40983396
0.42307956 0.79901152 -0.42729882
0.43594937 0.79545098 -0.42095829
0.48774107 0.83813844 -0.24419790
0.51168674 0.82829636 -0.22825825
0.55834614 0.75335183 -0.34743433
0.52511672 0.81864311 -0.23254222
-0.54631292 0.83659010 0.04073334
-0.58700980 0.80937681 0.01812954
-0.53106103 0.84670303 0.03268260
-0.51315339 0.85726361 0.04210341
0.50498148 0.86261047 0.02994800
0.51207463 0.85858162 0.02484293
0.61845484 0.78248026 -0.07237572
0.54493243 0.83746708 0.04120115
-0.52745634 0.79003824 0.31245702
-0.55486036 0.78199079 0.28393728
-0.49707957 0.80869233 0.31452920
-0.42834318 0.76157426 0.48634018
-0.46583306 0.84269616 0.26993098
-0.42343412 0.76331513 0.48790733
0.42485907 0.77781365 0.46314221
0.50232994 0.81110576 0.29961989
0.46765155 0.84928735 0.24497558
0.43649070 0.77382772 0.45898422
0.57884232 0.78379678 0.22495370
0.52324364 0.79871918 0.29709217
-0.51056805 0.69401745 0.50760225
-0.47498815 0.70448999 0.52733301
-0.39381036 0.65069391 0.64923866
-0.42083091 0.64182530 0.64106289
-0.29075439 0.67607160 0.67704437
-0.35235920 0.72441552 0.59250751
-0.35745833 0.72300278 0.59117723
-0.23806468 0.71454040 0.65784285
-0.26886572 0.68081812 0.68132071
-0.25289934 0.70983122 0.65740518
0.21744423 0.75112983 0.62331532
0.27696949 0.73589453 0.61785690
0.26442153 0.74627755 0.61086093
0.35707519 0.76063195 0.54215896
0.37658283 0.75639406 0.53483961
0.31282497 0.73072172 0.60678357
0.48272086 0.71216781 0.50970342
0.42897426 0.65839323 0.61846539
0.40418588 0.66608798 0.62686568
0.53503711 0.69527927 0.47991878
-0.33813052 0.60227936 0.72313714
-0.28347205 0.56432635 0.77535758
-0.32620309 0.60443599 0.72680719
-0.25380946 0.56805375 0.78287655
-0.23271533 0.59085675 0.77248422
-0.14292489 0.59257738 0.79273232
-0.19035224 0.60317469 0.77456202
-0.18861959 0.67923564 0.70926835
-0.20291479 0.59255376 0.77955476
-0.09882281 0.60279755 0.79175070
-0.12150426 0.60736085 0.78507931
-0.07343872 0.61854390 0.78231081
-0.03963716 0.60476057 0.79542036
-0.01457936 0.61862837 0.78554846
0.01611239 0.60578099 0.79546828
0.03689535 0.61460575 0.78797113
0.06324819 0.60267719 0.79547462
0.11197449 0.60797250 0.78602236
0.09478573 0.61637261 0.78172916
0.17094495 0.63584027 0.75265196
0.20884848 0.64362234 0.73629654
0.16927671 0.63665557 0.75233973
0.17488854 0.53630995 0.82570312
0.25953255 0.63748598 0.72543399
0.23198728 0.63126751 0.74005623
0.34164284 0.64656242 0.68208299
0.28780013 0.62171783 0.72844905
0.35534203 0.64106102 0.68027407
-0.13940093 0.50806121 0.84996540
-0.08243356 0.51514071 0.85313232
-0.10398098 0.50011794 0.85969181
-0.03890449 0.52886660 0.84781281
-0.06635752 0.51195447 0.85644574
0.00944588 0.52011317 0.85404512
-0.00619415 0.51395499 0.85779479
0.06455344 0.52045068 0.85144814
0.03417863 0.50739168 0.86103746
0.12518858 0.52920417 0.83920842
0.08283623 0.51034540 0.85597064
0.13472550 0.52394110 0.84103197
-0.24736016 0.43660315 -0.86498014
-0.18795973 0.42198210 -0.88690600
-0.23177046 0.44572743 -0.86464415
-0.18230876 0.42428037 -0.88698911
-0.13997605 0.39334532 -0.90867275
-0.16061402 0.48181201 -0.86142923
-0.09906124 0.41449657 -0.90464328
-0.10569640 0.41659649 -0.90292615
-0.05012835 0.42149097 -0.90544603
-0.06913190 0.43035422 -0.90000890
-0.02135479 0.43623534 -0.89957918
0.00859288 0.41473332 -0.90990243
0.03129297 0.42578693 -0.90428217
0.05467709 0.41280625 -0.90917623
0.11111291 0.41209719 -0.90433944
0.08350328 0.42870842 -0.89957562
0.13111022 0.41967160 -0.89815692
0.18403599 0.41392710 -0.89151282
0.15696463 0.40395321 -0.90121247
0.20410006 0.40142277 -0.89286221
0.24778819 0.41881554 -0.87361007
0.25131055 0.41653099 -0.87369614
-0.37467873 0.48497527 -0.79019923
-0.35290421 0.56634328 -0.74479119
-0.38506017 0.47946232 -0.78857121
-0.35790014 0.56405293 -0.74414500
-0.29915834 0.46440970 -0.83356338
-0.29225294 0.53053645 -0.79568794
-0.27543796 0.54190770 -0.79402140
-0.19753699 0.53620686 -0.82064690
-0.22546090 0.51868769 -0.82470023
-0.19926190 0.53641398 -0.82009435
0.18953978 0.49559896 -0.84761804
0.23935033 0.49474185 -0.83542919
0.21951172 0.50593117 -0.83417520
0.31124147 0.43610177 -0.84436011
0.30978574 0.50114598 -0.80801331
0.28596454 0.51891082 -0.80557796
0.37592004 0.53590597 -0.75596886
0.40056367 0.48175871 -0.77939547
0.36722368 0.53915072 -0.75793355
0.41769908 0.47618490 -0.77380580
-0.55742120 0.59543014 -0.57857114
-0.54058610 0.62043871 -0.56817469
-0.50890184 0.63325229 -0.58310415
-0.45914611 0.52498617 -0.71664103
-0.44431999 0.59584338 -0.66899209
-0.42764587 0.60500789 -0.67162821
0.44116400 0.60204514 -0.66551933
0.48548368 0.54370826 -0.68460713
0.46431902 0.59230152 -0.65847305
0.52014191 0.65524023 -0.54782537
0.57570990 0.63817442 -0.51116683
0.57009282 0.64447546 -0.50955427
-0.63134558 0.68560116 -0.36242765
-0.64764898 0.66632452 -0.36954354
-0.63366445 0.75392790 -0.17338421
-0.58085742 0.70505625 -0.40681733
0.57354072 0.74067643 -0.34992780
0.65697234 0.71153876 -0.24919860
0.67727065 0.61433853 -0.40483655
0.64172028 0.72564410 -0.24826543
-0.64190713 0.75628797 0.12642679
-0.70888981 0.70046076 -0.08264358
-0.66087857 0.74070823 0.12079251
-0.61372205 0.77263227 -0.16243345
0.59652602 0.79935165 -0.07206704
0.67429943 0.73515746 0.06974089
0.73692610 0.66862046 -0.09943139
0.66294620 0.74537162 0.07016756
-0.60545463 0.68204412 0.41017132
-0.71718957 0.65182112 0.24651235
-0.61581861 0.67226203 0.41089075
-0.57950481 0.76440763 0.28258653
0.59296167 0.77286518 0.22599972
0.62709947 0.69090204 0.35972298
0.72098513 0.65406167 0.22887503
0.63288818 0.68508526 0.36070868
-0.63027246 0.57842276 0.51786459
-0.45820593 0.57784805 0.67538061
-0.52025506 0.68485599 0.51020285
-0.54668107 0.57255558 0.61099911
-0.52482958 0.59213366 0.61149950
-0.44701810 0.58500787 0.67671310
0.46459087 0.58022112 0.66895350
0.52630486 0.70347907 0.47761952
0.54256982 0.62298222 0.56348128
0.45020238 0.58808061 0.67192188
0.56738250 0.59719708 0.56695039
0.64150656 0.59581993 0.48318521
-0.46455719 0.47945540 0.74451940
-0.38015896 0.51931916 0.76536708
-0.36221597 0.52557064 0.76978900
-0.39909525 0.47290609 0.78554619
-0.25392524 0.46256026 0.84944687
-0.30648898 0.48639074 0.81822281
-0.31139165 0.48398529 0.81779794
-0.21054741 0.47805261 0.85272240
-0.22714785 0.48103013 0.84676671
-0.18253698 0.49872791 0.84731973
0.19151934 0.52695176 0.82803513
0.24405802 0.52485757 0.81545093
0.22393246 0.53681521 0.81343942
0.31455626 0.45860977 0.83110254
0.31050376 0.53276181 0.78724346
0.29304095 0.54518838 0.78542768
0.36918497 0.55672705 0.74414881
0.38560941 0.54544269 0.74417582
0.39267681 0.47039061 0.79027691
0.48374040 0.51998757 0.70399443
-0.25571967 0.38982005 0.88467383
-0.21604458 0.37602255 0.90107257
-0.18979652 0.39981395 0.89673078
-0.14353074 0.41403529 0.89887358
-0.15683929 0.49498530 0.85462915
-0.16470606 0.39474959 0.90390524
-0.09822105 0.42085786 0.90179337
-0.11109700 0.40864759 0.90590541
-0.04663339 0.43221606 0.90056349
-0.05994153 0.41640104 0.90720295
-0.01782913 0.43537201 0.90007407
-0.00045042 0.41977329 0.90762888
0.03518627 0.43215029 0.90111490
0.05128547 0.42055987 0.90581411
0.10257012 0.42574268 0.89901198
0.08765222 0.43543653 0.89594203
0.13866472 0.43872953 0.88785612
0.18760928 0.44252975 0.87690945
0.15259870 0.43028126 0.88970314
0.24934263 0.44424649 0.86050759
0.20864243 0.42842371 0.87915952
0.25845265 0.43852428 0.86075472
-0.05881941 0.25293054 -0.96569479
-0.05072100 0.25128583 -0.96658306
-0.01807146 0.27800693 -0.96040906
0.01258418 0.23851154 -0.97105813
-0.00571472 0.27460142 -0.96154116
0.04006838 0.23704700 -0.97067154
0.05867547 0.26018336 -0.96377477
0.07381247 0.26207048 -0.96222180
-0.30500512 0.28608707 -0.90836450
-0.26230695 0.36155742 -0.89469061
-0.27913470 0.29593122 -0.91351438
-0.25897089 0.36356390 -0.89484936
-0.21112251 0.34165850 -0.91580388
-0.20333405 0.34535331 -0.91618031
-0.16526128 0.32490824 -0.93119458
-0.14220323 0.34053956 -0.92941436
-0.10939521 0.31941922 -0.94127788
-0.07561255 0.33091793 -0.94062536
-0.08274642 0.33351653 -0.93910583
-0.03544024 0.34438084 -0.93816088
-0.04057461 0.34695915 -0.93700216
0.00106037 0.36022030 -0.93286666
0.03312789 0.32517248 -0.94507428
0.02680903 0.32553666 -0.94514928
0.05707430 0.34958648 -0.93516406
0.09886989 0.33800008 -0.93593840
0.09077963 0.33452471 -0.93800441
0.12947346 0.32128206 -0.93809086
0.17676773 0.31449254 -0.93265621
0.14955097 0.33025079 -0.93197045
0.22738414 0.31650611 -0.92093449
0.20450986 0.32870001 -0.92202604
0.26591440 0.34089099 -0.90171108
0.30007888 0.30746469 -0.90300506
0.28604245 0.33246449 -0.89869187
0.33699874 0.30107432 -0.89206844
-0.51592567 0.38012078 -0.76767760
-0.45143551 0.40921059 -0.79293926
-0.46260697 0.39207719 -0.79515424
-0.40378677 0.41978549 -0.81285692
-0.36245029 0.35923162 -0.85998978
-0.34542720 0.36060835 -0.86639579
-0.32025067 0.38670970 -0.86480929
-0.31914130 0.44878236 -0.83471146
0.33293387 0.41308353 -0.84765384
0.34472387 0.41080901 -0.84403875
0.37147198 0.36841762 -0.85221889
0.41184014 0.36125130 -0.83659142
0.44575194 0.42457433 -0.78806208
0.50496262 0.32963129 -0.79771923
0.51043362 0.41810197 -0.75143081
0.50558328 0.42340949 -0.75173796
-0.72736887 0.51502223 -0.45352688
-0.64312058 0.55303757 -0.52966532
-0.61246806 0.45696569 -0.64503119
-0.55388458 0.46809299 -0.68854980
-0.52640267 0.50545208 -0.68368006
-0.47803956 0.50746273 -0.71690986
0.50923863 0.52857701 -0.67917771
0.59742054 0.42164328 -0.68213315
0.59756107 0.51997647 -0.61036484
0.57483709 0.54161235 -0.61336643
0.67498802 0.52808480 -0.51528402
0.71030202 0.48319068 -0.51185722
-0.72955341 0.62516053 -0.27735560
-0.73301543 0.50546279 -0.45518759
-0.73378587 0.61948620 -0.27891781
-0.63265477 0.56946161 -0.52484418
0.66923180 0.62394148 -0.40351683
0.77222844 0.57792092 -0.26395196
0.77590209 0.48289441 -0.40594204
0.75504320 0.60018991 -0.26397319
-0.77120950 0.63465330 0.04950854
-0.82173672 0.54676906 -0.16059996
-0.77997415 0.62396986 0.04797852
-0.70135968 0.70826937 -0.08030630
0.71909744 0.68789327 -0.09849732
0.79542264 0.60223607 0.06793034
0.83801988 0.52980817 -0.13048367
0.79993693 0.59633386 0.06698384
-0.72558042 0.57888238 0.37205946
-0.82235318 0.53936976 0.18115049
-0.74039204 0.56229180 0.36830363
-0.68534741 0.68320219 0.25205889
0.71886091 0.65634385 0.22902345
0.74652571 0.55195051 0.37155080
0.83920693 0.51457621 0.17590638
0.76171165 0.53248983 0.36912050
-0.76007936 0.44440282 0.47411550
-0.63409106 0.57460372 0.51745444
-0.55474756 0.46459921 0.69021932
-0.64126241 0.46808241 0.60801429
-0.64730243 0.46095773 0.60705645
-0.54433915 0.47585547 0.69083751
0.55544286 0.50574709 0.66007811
0.66413057 0.56882545 0.48514760
0.64987351 0.46799457 0.59887019
0.64993920 0.46786292 0.59890176
0.55876801 0.50025797 0.66145315
0.77375452 0.45600647 0.43972950
-0.54635525 0.36434249 0.75415548
-0.46272067 0.38203172 0.79996334
-0.47246466 0.47166359 0.74452038
-0.48519471 0.35775672 0.79786980
-0.33152398 0.39801816 0.85537909
-0.38199855 0.41103940 0.82772201
-0.41154194 0.37351679 0.83133534
-0.32649140 0.40190041 0.85549952
0.32786601 0.44706842 0.83224618
0.33092071 0.38188377 0.86293469
0.38550817 0.36335685 0.84814813
0.35068753 0.36215745 0.86363200
0.41075885 0.45340195 0.79101444
0.44972369 0.45363889 0.76938960
0.47962675 0.40798657 0.77685593
0.53349339 0.40350705 0.74334842