# vtk DataFile Version 3.0
Visualize mesh data
ASCII

DATASET UNSTRUCTURED_GRID
POINTS 662 double
0.00000000 0.00000000 0.00000000
0.00006199 0.00089943 -0.09953721
0.06250000 0.00000000 0.00000000
0.07079650 0.00010900 -0.09712032
0.03125000 0.05412659 0.00000000
0.03304397 0.05980533 -0.09728772
-0.03125000 0.05412659 0.00000000
-0.03464804 0.05975755 -0.09710050
-0.06250000 0.00000000 0.00000000
-0.06856028 -0.00040569 -0.09719933
-0.03125000 -0.05412659 0.00000000
-0.03504095 -0.05943160 -0.09712459
0.03125000 -0.05412659 0.00000000
0.03283807 -0.05916540 -0.09737525
0.12500000 0.00000000 0.00000000
0.13750757 0.00053116 -0.09003471
0.10825318 0.06250000 0.00000000
0.11896627 0.06823412 -0.09011990
0.06250000 0.10825318 0.00000000
0.06698091 0.11797392 -0.09050394
0.00000000 0.12500000 0.00000000
-0.00017824 0.13773873 -0.09000713
-0.06250000 0.10825318 0.00000000
-0.06720542 0.11777217 -0.09049804
-0.10825318 0.06250000 0.00000000
-0.12011429 0.06995940 -0.08995195
-0.12500000 0.00000000 0.00000000
-0.13911243 0.00024076 -0.08993564
-0.10825318 -0.06250000 0.00000000
-0.11722134 -0.06904978 -0.09035040
-0.06250000 -0.10825318 0.00000000
-0.06700905 -0.12041050 -0.09025267
0.00000000 -0.12500000 0.00000000
-0.00008470 -0.13697946 -0.09010426
0.06250000 -0.10825318 0.00000000
0.06728295 -0.12003777 -0.09014474
0.10825318 -0.06250000 0.00000000
0.11971053 -0.06794605 -0.09004827
0.18750000 0.00000000 0.00000000
0.20347133 0.00041350 -0.07859027
0.17619237 0.06412878 0.00000000
0.19127551 0.07100535 -0.07859742
0.14363334 0.12052268 0.00000000
0.15594641 0.13134745 -0.07851757
0.09375000 0.16237976 0.00000000
0.10002932 0.17734731 -0.07886375
0.03255903 0.18465145 0.00000000
0.03460927 0.19962542 -0.07892140
-0.03255903 0.18465145 0.00000000
-0.03661873 0.20086068 -0.07855831
-0.09375000 0.16237976 0.00000000
-0.10221616 0.17824785 -0.07833696
-0.14363334 0.12052268 0.00000000
-0.15757137 0.12941900 -0.07881902
-0.17619237 0.06412878 0.00000000
-0.19149228 0.07122456 -0.07856282
-0.18750000 0.00000000 0.00000000
-0.20350846 -0.00192133 -0.07882918
-0.17619237 -0.06412878 0.00000000
-0.19238913 -0.07061532 -0.07836910
-0.14363334 -0.12052268 0.00000000
-0.15514579 -0.13310990 -0.07872178
-0.09375000 -0.16237976 0.00000000
-0.10306260 -0.17725751 -0.07835135
-0.03255903 -0.18465145 0.00000000
-0.03486373 -0.19913747 -0.07907046
0.03255903 -0.18465145 0.00000000
0.03633028 -0.20003217 -0.07869352
0.09375000 -0.16237976 0.00000000
0.10194362 -0.17839018 -0.07839731
0.14363334 -0.12052268 0.00000000
0.15596390 -0.13211952 -0.07850998
0.17619237 -0.06412878 0.00000000
0.19315141 -0.06864676 -0.07851801
0.25000000 0.00000000 0.00000000
0.26825980 -0.00042757 -0.06293678
0.24148145 0.06470476 0.00000000
0.25669382 0.06855473 -0.06393103
0.21650635 0.12500000 0.00000000
0.23122103 0.13279219 -0.06339957
0.17677671 0.17677671 0.00000000
0.18923004 0.18800518 -0.06341208
0.12500000 0.21650635 0.00000000
0.13385239 0.23215309 -0.06298126
0.06470476 0.24148145 0.00000000
0.07016926 0.25754993 -0.06341380
0.00000000 0.25000000 0.00000000
-0.00147023 0.26812948 -0.06314849
-0.06470476 0.24148145 0.00000000
-0.06966148 0.25751335 -0.06336636
-0.12500000 0.21650635 0.00000000
-0.13339420 0.23279667 -0.06299424
-0.17677671 0.17677671 0.00000000
-0.18868965 0.18917537 -0.06321782
-0.21650635 0.12500000 0.00000000
-0.23171913 0.13302276 -0.06319149
-0.24148145 0.06470476 0.00000000
-0.25855724 0.06908986 -0.06302593
-0.25000000 0.00000000 0.00000000
-0.26726545 0.00070765 -0.06318885
-0.24148145 -0.06470476 0.00000000
-0.25913734 -0.06763824 -0.06328937
-0.21650635 -0.12500000 0.00000000
-0.23209963 -0.13347859 -0.06298529
-0.17677671 -0.17677671 0.00000000
-0.18843117 -0.18876849 -0.06336372
-0.12500000 -0.21650635 0.00000000
-0.13451188 -0.23073880 -0.06334572
-0.06470476 -0.24148145 0.00000000
-0.06906832 -0.26015197 -0.06289822
0.00000000 -0.25000000 0.00000000
0.00105827 -0.26732152 -0.06324282
0.06470476 -0.24148145 0.00000000
0.06937897 -0.25880301 -0.06296074
0.12500000 -0.21650635 0.00000000
0.13341123 -0.23234699 -0.06301636
0.17677671 -0.17677671 0.00000000
0.18886862 -0.18891528 -0.06320251
0.21650635 -0.12500000 0.00000000
0.23170911 -0.13476075 -0.06303158
0.24148145 -0.06470476 0.00000000
0.25900426 -0.06957784 -0.06292042
0.31250000 0.00000000 0.00000000
0.32829479 -0.00049979 -0.04417942
0.30567113 0.06497240 0.00000000
0.32073082 0.06842005 -0.04422361
0.28548297 0.12710521 0.00000000
0.30024919 0.13292258 -0.04420844
0.25281781 0.18368289 0.00000000
0.26516467 0.19308777 -0.04421366
0.20910332 0.23223276 0.00000000
0.22026825 0.24422201 -0.04410150
0.15625000 0.27063295 0.00000000
0.16397940 0.28373861 -0.04427011
0.09656781 0.29720515 0.00000000
0.10192732 0.31199074 -0.04418859
0.03266514 0.31078809 0.00000000
0.03438105 0.32645387 -0.04412375
-0.03266514 0.31078809 0.00000000
-0.03479180 0.32580704 -0.04437671
-0.09656781 0.29720515 0.00000000
-0.10123291 0.31206081 -0.04417552
-0.15625000 0.27063295 0.00000000
-0.16347689 0.28420774 -0.04428711
-0.20910332 0.23223276 0.00000000
-0.22004334 0.24338728 -0.04420761
-0.25281781 0.18368289 0.00000000
-0.26545578 0.19311301 -0.04411287
-0.28548297 0.12710521 0.00000000
-0.29976468 0.13411056 -0.04416539
-0.30567113 0.06497240 0.00000000
-0.32062389 0.06838303 -0.04426185
-0.31250000 0.00000000 0.00000000
-0.32762080 0.00090130 -0.04451878
-0.30567113 -0.06497240 0.00000000
-0.32061486 -0.06780998 -0.04430749
-0.28548297 -0.12710521 0.00000000
-0.29909876 -0.13387116 -0.04436139
-0.25281781 -0.18368289 0.00000000
-0.26486242 -0.19228291 -0.04451089
-0.20910332 -0.23223276 0.00000000
-0.21949703 -0.24272267 -0.04466196
-0.15625000 -0.27063295 0.00000000
-0.16342383 -0.28319719 -0.04473465
-0.09656781 -0.29720515 0.00000000
-0.10200748 -0.31148869 -0.04440219
-0.03266514 -0.31078809 0.00000000
-0.03426564 -0.32598336 -0.04425457
0.03266514 -0.31078809 0.00000000
0.03362645 -0.32591304 -0.04441276
0.09656781 -0.29720515 0.00000000
0.10110447 -0.31178562 -0.04425923
0.15625000 -0.27063295 0.00000000
0.16337327 -0.28396146 -0.04439903
0.20910332 -0.23223276 0.00000000
0.21925911 -0.24285962 -0.04457860
0.25281781 -0.18368289 0.00000000
0.26524049 -0.19255066 -0.04424088
0.28548297 -0.12710521 0.00000000
0.29851100 -0.13344087 -0.04481144
0.30567113 -0.06497240 0.00000000
0.32064837 -0.06738978 -0.04440897
0.37500000 0.00000000 0.00000000
0.38437958 0.00032728 -0.02274283
0.36930290 0.06511807 0.00000000
0.37859205 0.06684343 -0.02264096
0.35238472 0.12825754 0.00000000
0.36154386 0.13131198 -0.02263651
0.32475954 0.18750000 0.00000000
0.33267777 0.19239401 -0.02279483
0.28726667 0.24104536 0.00000000
0.29508596 0.24722473 -0.02267362
0.24104536 0.28726667 0.00000000
0.24711323 0.29501501 -0.02263780
0.18750000 0.32475954 0.00000000
0.19226223 0.33273104 -0.02276521
0.12825754 0.35238472 0.00000000
0.13177741 0.36118827 -0.02270162
0.06511807 0.36930290 0.00000000
0.06677843 0.37851050 -0.02267951
0.00000000 0.37500000 0.00000000
0.00032232 0.38431371 -0.02279401
-0.06511807 0.36930290 0.00000000
-0.06687294 0.37817654 -0.02308268
-0.12825754 0.35238472 0.00000000
-0.13129291 0.36126512 -0.02268850
-0.18750000 0.32475954 0.00000000
-0.19189092 0.33295488 -0.02279696
-0.24104536 0.28726667 0.00000000
-0.24738448 0.29437502 -0.02263918
-0.28726667 0.24104536 0.00000000
-0.29421772 0.24722221 -0.02283417
-0.32475954 0.18750000 0.00000000
-0.33262628 0.19184437 -0.02314021
-0.35238472 0.12825754 0.00000000
-0.36101784 0.13128102 -0.02287030
-0.36930290 0.06511807 0.00000000
-0.37829176 0.06636462 -0.02314995
-0.37500000 0.00000000 0.00000000
-0.38493214 0.00021038 -0.02262142
-0.36930290 -0.06511807 0.00000000
-0.37837445 -0.06697209 -0.02282106
-0.35238472 -0.12825754 0.00000000
-0.36097077 -0.13154142 -0.02283327
-0.32475954 -0.18750000 0.00000000
-0.33289757 -0.19294597 -0.02288953
-0.28726667 -0.24104536 0.00000000
-0.29442375 -0.24731472 -0.02265026
-0.24104536 -0.28726667 0.00000000
-0.24728175 -0.29444210 -0.02263536
-0.18750000 -0.32475954 0.00000000
-0.19289454 -0.33294253 -0.02283174
-0.12825754 -0.35238472 0.00000000
-0.13149768 -0.36103761 -0.02278549
-0.06511807 -0.36930290 0.00000000
-0.06691973 -0.37836503 -0.02281618
0.00000000 -0.37500000 0.00000000
0.00018616 -0.38492313 -0.02262355
0.06511807 -0.36930290 0.00000000
0.06636354 -0.37832478 -0.02310009
0.12825754 -0.35238472 0.00000000
0.13124142 -0.36118196 -0.02276684
0.18750000 -0.32475954 0.00000000
0.19235202 -0.33263568 -0.02283865
0.24104536 -0.28726667 0.00000000
0.24721462 -0.29446654 -0.02265085
0.28726667 -0.24104536 0.00000000
0.29438283 -0.24771724 -0.02277835
0.32475954 -0.18750000 0.00000000
0.33273705 -0.19221966 -0.02273465
0.35238472 -0.12825754 0.00000000
0.36123050 -0.13175326 -0.02269661
0.36930290 -0.06511807 0.00000000
0.37862206 -0.06618131 -0.02292583
0.43750000 0.00000000 0.00000000
0.43706520 -0.00000883 0.00085788
0.43261349 0.06520599 0.00000000
0.43218083 0.06515371 0.00086236
0.41806310 0.12895539 0.00000000
0.41765700 0.12882878 0.00091733
0.39417389 0.18982413 0.00000000
0.39374097 0.18963116 0.00098136
0.36147946 0.24645253 0.00000000
0.36110931 0.24618848 0.00096031
0.32071018 0.29757556 0.00000000
0.32035739 0.29724128 0.00101267
0.27277678 0.34205127 0.00000000
0.27251549 0.34170761 0.00084941
0.21875000 0.37888610 0.00000000
0.21851805 0.37851365 0.00092930
0.15983669 0.40725726 0.00000000
0.15966372 0.40678939 0.00101679
0.09735291 0.42653096 0.00000000
0.09724292 0.42607613 0.00099011
0.03269442 0.43627667 0.00000000
0.03264869 0.43587066 0.00080890
-0.03269442 0.43627667 0.00000000
-0.03267003 0.43589160 0.00083735
-0.09735291 0.42653096 0.00000000
-0.09726438 0.42614835 0.00085811
-0.15983669 0.40725726 0.00000000
-0.15967784 0.40681835 0.00097729
-0.21875000 0.37888610 0.00000000
-0.21851365 0.37850319 0.00094701
-0.27277678 0.34205127 0.00000000
-0.27246033 0.34166847 0.00101516
-0.32071018 0.29757556 0.00000000
-0.32039225 0.29726535 0.00093977
[...]
POINT_DATA 662

SCALARS kkt_multipliers double
LOOKUP_TABLE default 
0.00073371
0.00073371
0.00086068
0.00086068
0.00084140
0.00084140
0.00083093
0.00083093
0.00083183
0.00083183
0.00083378
0.00083378
0.00083988
0.00083988
0.00083289
0.00083289
0.00084501
0.00084501
0.00083598
0.00083598
0.00085804
0.00085804
0.00081897
0.00081897
0.00087442
0.00087442
0.00086981
0.00086981
0.00082127
0.00082127
0.00087160
0.00087160
0.00084072
0.00084072
0.00084867
0.00084867
0.00084218
0.00084218
0.00075860
0.00075860
0.00081116
0.00081116
0.00078457
0.00078457
0.00081243
0.00081243
0.00075877
0.00075877
0.00079465
0.00079465
0.00082882
0.00082882
0.00080565
0.00080565
0.00079588
0.00079588
0.00078150
0.00078150
0.00079878
0.00079878
0.00082404
0.00082404
0.00080148
0.00080148
0.00074801
0.00074801
0.00077033
0.00077033
0.00083666
0.00083666
0.00078663
0.00078663
0.00082869
0.00082869
0.00071241
0.00071241
0.00065312
0.00065312
0.00066103
0.00066103
0.00065722
0.00065722
0.00069116
0.00069116
0.00066537
0.00066537
0.00072899
0.00072899
0.00064471
0.00064471
0.00071166
0.00071166
0.00065722
0.00065722
0.00066175
0.00066175
0.00067878
0.00067878
0.00066694
0.00066694
0.00071862
0.00071862
0.00067723
0.00067723
0.00065693
0.00065693
0.00066700
0.00066700
0.00076527
0.00076527
0.00067766
0.00067766
0.00069077
0.00069077
0.00068982
0.00068982
0.00066138
0.00066138
0.00070283
0.00070283
0.00069187
0.00069187
0.00051062
0.00051062
0.00048601
0.00048601
0.00052855
0.00052855
0.00048200
0.00048200
0.00054905
0.00054905
0.00046376
0.00046376
0.00051328
0.00051328
0.00050251
0.00050251
0.00048051
0.00048051
0.00050279
0.00050279
0.00048488
0.00048488
0.00050311
0.00050311
0.00050508
0.00050508
0.00052544
0.00052544
0.00048404
0.00048404
0.00049666
0.00049666
0.00048049
0.00048049
0.00048394
0.00048394
0.00047055
0.00047055
0.00049594
0.00049594
0.00046510
0.00046510
0.00049300
0.00049300
0.00047080
0.00047080
0.00048549
0.00048549
0.00048487
0.00048487
0.00048967
0.00048967
0.00047349
0.00047349
0.00048247
0.00048247
0.00047645
0.00047645
0.00047951
0.00047951
0.00022746
0.00022746
0.00022581
0.00022581
0.00024144
0.00024144
0.00021165
0.00021165
0.00026317
0.00026317
0.00024862
0.00024862
0.00022236
0.00022236
0.00023436
0.00023436
0.00021763
0.00021763
0.00023255
0.00023255
0.00023415
0.00023415
0.00022566
0.00022566
0.00022791
0.00022791
0.00023114
0.00023114
0.00022448
0.00022448
0.00022047
0.00022047
0.00021290
0.00021290
0.00022999
0.00022999
0.00026554
0.00026554
0.00022075
0.00022075
0.00021443
0.00021443
0.00028153
0.00028153
0.00022626
0.00022626
0.00022319
0.00022319
0.00028191
0.00028191
0.00021566
0.00021566
0.00022032
0.00022032
0.00027167
0.00027167
0.00023223
0.00023223
0.00022523
0.00022523
0.00022904
0.00022904
0.00022742
0.00022742
0.00027073
0.00027073
0.00021483
0.00021483
0.00023935
0.00023935
0.00024512
0.00024512
0.00112859
0.00112859
0.00112900
0.00112900
0.00111259
0.00111259
0.00111029
0.00111029
0.00111650
0.00111650
0.00111391
0.00111391
0.00114178
0.00114178
0.00111200
0.00111200
0.00110967
0.00110967
0.00110359
0.00110359
0.00113522
0.00113522
0.00111375
0.00111375
0.00111361
0.00111361
0.00110489
0.00110489
0.00111428
0.00111428
0.00110833
0.00110833
0.00111647
0.00111647
0.00111120
0.00111120
0.00110694
0.00110694
0.00111532
0.00111532
0.00111070
0.00111070
0.00111723
0.00111723
0.00111273
0.00111273
0.00111471
0.00111471
0.00112239
0.00112239
0.00112803
0.00112803
0.00111448
0.00111448
0.00110989
0.00110989
0.00112608
0.00112608
0.00111679
0.00111679
0.00111250
0.00111250
0.00114266
0.00114266
0.00112615
0.00112615
0.00112026
0.00112026
0.00111469
0.00111469
0.00111226
0.00111226
0.00110376
0.00110376
0.00113313
0.00113313
0.00110508
0.00110508
0.00114039
0.00114039
0.00110590
0.00110590
0.00113891
0.00113891
0.00000000
0.00000000
0.00000000
0.00000000
0.00000000
0.00000000
0.00000000
0.00000000
0.00000000
0.00000000
0.00000000
0.00000000
0.00000000
0.00000000
0.00000000
0.00000000
0.00000000
0.00000000
0.00000000
0.00000000
0.00000000
0.00000000
0.00000000
0.00000000
0.00000000
0.00000000
0.00000000
0.00000000
0.00000000
0.00000000
0.00000000
0.00000000
0.00000000
0.00000000
0.00000000
0.00000000
0.00000000
0.00000000
0.00000000
0.00000000
0.00000000
0.00000000
0.00000000
0.00000000
0.00000000
0.00000000
0.00000000
0.00000000
0.00000000
0.00000000
0.00000000
0.00000000
0.00000000
0.00000000
0.00000000
0.00000000
0.00000000
0.00000000
0.00000000
0.00000000
0.00000000
0.00000000
0.00000000
0.00000000
0.00000000
0.00000000
0.00000000
0.00000000
0.00000000
0.00000000
0.00000000
0.00000000
0.00000000
0.00000000
0.00000000
0.00000000
0.00000000
0.00000000
0.00000000
0.00000000
0.00000000
0.00000000
0.00000000
0.00000000
0.00000000
0.00000000
0.00000000
0.00000000
0.00000000
0.00000000
0.00000000
0.00000000
0.00000000
0.00000000
0.00000000
0.00000000
0.00000000
0.00000000
0.00000000
0.00000000
0.00000000
0.00000000
0.00000000
0.00000000
0.00000000
0.00000000
0.00000000
0.00000000
0.00000000
0.00000000
0.00000000
0.00000000
0.00000000
0.00000000
0.00000000
0.00000000
0.00000000
0.00000000
0.00000000
0.00000000
0.00000000
0.00000000
0.00000000
0.00000000
0.00000000
0.00000000
0.00000000
0.00000000
0.00000000
0.00000000
0.00000000
0.00000000
0.00000000
0.00000000
0.00000000
0.00000000
0.00000000
0.00000000
0.00000000
0.00000000
0.00000000
0.00000000
0.00000000
0.00000000
0.00000000
0.00000000
0.00000000
0.00000000
0.00000000
0.00000000
0.00000000
0.00000000
0.00000000
0.00000000
0.00000000
0.00000000
0.00000000
0.00000000
0.00000000
0.00000000
0.00000000
0.00000000
0.00000000
0.00000000
0.00000000
0.00000000
0.00000000
0.00000000
0.00000000
0.00000000
0.00000000
0.00000000
0.00000000
0.00000000
0.00000000
0.00000000
0.00000000
0.00000000
0.00000000
0.00000000
0.00000000
0.00000000
0.00000000
0.00000000
0.00000000
0.00000000
0.00000000
0.00000000
0.00000000
0.00000000
0.00000000
0.00000000
0.00000000
0.00000000
0.00000000
0.00000000
0.00000000
0.00000000
0.00000000
0.00000000
0.00000000
0.00000000
0.00000000
0.00000000
0.00000000
0.00000000
0.00000000
0.00000000
0.00000000
0.00000000
0.00000000
0.00000000
0.00000000
0.00000000
0.00000000
0.00000000
0.00000000
0.00000000
0.00000000
0.00000000
0.00000000
0.00000000
0.00000000
0.00000000
0.00000000
0.00000000
0.00000000
0.00000000
0.00000000
0.00000000
0.00000000
0.00000000
0.00000000
0.00000000
0.00000000
0.00000000
0.00000000
0.00000000
0.00000000
0.00000000
0.00000000
0.00000000
0.00000000
0.00000000
0.00000000
0.00000000
0.00000000
0.00000000
0.00000000
0.00000000
0.00000000
0.00000000
0.00000000
0.00000000
0.00000000
0.00000000
0.00000000
0.00000000
0.00000000
0.00000000
0.00000000
0.00000000
0.00000000
0.00000000
0.00000000
0.00000000
0.00000000
0.00000000
0.00000000
0.00000000
0.00000000
0.00000000
0.00000000
0.00000000
0.00000000
0.00000000
0.00000000
0.00000000
0.00000000
0.00000000
0.00000000
0.00000000
0.00000000
0.00000000
0.00000000
0.00000000
0.00000000
0.00000000
0.00000000
0.00000000
0.00000000
0.00000000
0.00000000
0.00000000
0.00000000
0.00000000
0.00000000
0.00000000
0.00000000
0.00000000
0.00000000
0.00000000
0.00000000
0.00000000
0.00000000
0.00000000
0.00000000
0.00000000
0.00000000
0.00000000
0.00000000
0.00000000
0.00000000
0.00000000
0.00000000
0.00000000
0.00000000
0.00000000
0.00000000
0.00000000
0.00000000
0.00000000
0.00000000
0.00000000


SCALARS phi0 double
LOOKUP_TABLE default 
-0.09954129
-0.09954129
-0.09747410
-0.09747410
-0.09746982
-0.09746982
-0.09732297
-0.09732297
-0.09738892
-0.09738892
-0.09734321
-0.09734321
-0.09751846
-0.09751846
-0.09090088
-0.09090088
-0.09093540
-0.09093540
-0.09113470
-0.09113470
-0.09090429
-0.09090429
-0.09111886
-0.09111886
-0.09103671
-0.09103671
-0.09103647
-0.09103647
-0.09103034
-0.09103034
-0.09117936
-0.09117936
-0.09089715
-0.09089715
-0.09103750
-0.09103750
-0.09093746
-0.09093746
-0.08019778
-0.08019778
-0.08032648
-0.08032648
-0.08021095
-0.08021095
-0.08051676
-0.08051676
-0.08035553
-0.08035553
-0.08031580
-0.08031580
-0.08037507
-0.08037507
-0.08053479
-0.08053479
-0.08035269
-0.08035269
-0.08046118
-0.08046118
-0.08028777
-0.08028777
-0.08054870
-0.08054870
-0.08029325
-0.08029325
-0.08041948
-0.08041948
-0.08027116
-0.08027116
-0.08043387
-0.08043387
-0.08031405
-0.08031405
-0.08045557
-0.08045557
-0.06553352
-0.06553352
-0.06582868
-0.06582868
-0.06554957
-0.06554957
-0.06559159
-0.06559159
-0.06549675
-0.06549675
-0.06564577
-0.06564577
-0.06571584
-0.06571584
-0.06555064
-0.06555064
-0.06560572
-0.06560572
-0.06551441
-0.06551441
-0.06549013
-0.06549013
-0.06544524
-0.06544524
-0.06550899
-0.06550899
-0.06577142
-0.06577142
-0.06543840
-0.06543840
-0.06553313
-0.06553313
-0.06561797
-0.06561797
-0.06575572
-0.06575572
-0.06558055
-0.06558055
-0.06546709
-0.06546709
-0.06551897
-0.06551897
-0.06548371
-0.06548371
-0.06556963
-0.06556963
-0.06549638
-0.06549638
-0.04692063
-0.04692063
-0.04684451
-0.04684451
-0.04697094
-0.04697094
-0.04685877
-0.04685877
-0.04704615
-0.04704615
-0.04681180
-0.04681180
-0.04690383
-0.04690383
-0.04685367
-0.04685367
-0.04689759
-0.04689759
-0.04683941
-0.04683941
-0.04688124
-0.04688124
-0.04688731
-0.04688731
-0.04684646
-0.04684646
-0.04694277
-0.04694277
-0.04684367
-0.04684367
-0.04702524
-0.04702524
-0.04684571
-0.04684571
-0.04689457
-0.04689457
-0.04690685
-0.04690685
-0.04703996
-0.04703996
-0.04701609
-0.04701609
-0.04695917
-0.04695917
-0.04681799
-0.04681799
-0.04692740
-0.04692740
-0.04681934
-0.04681934
-0.04690057
-0.04690057
-0.04693956
-0.04693956
-0.04679974
-0.04679974
-0.04709496
-0.04709496
-0.04692886
-0.04692886
-0.02460325
-0.02460325
-0.02453321
-0.02453321
-0.02460957
-0.02460957
-0.02462222
-0.02462222
-0.02476729
-0.02476729
-0.02468452
-0.02468452
-0.02458614
-0.02458614
-0.02460194
-0.02460194
-0.02453359
-0.02453359
-0.02462552
-0.02462552
-0.02479176
-0.02479176
-0.02455287
-0.02455287
-0.02462001
-0.02462001
-0.02456106
-0.02456106
-0.02465501
-0.02465501
-0.02482395
-0.02482395
-0.02463175
-0.02463175
-0.02486511
-0.02486511
-0.02470668
-0.02470668
-0.02462785
-0.02462785
-0.02461427
-0.02461427
-0.02489612
-0.02489612
-0.02456752
-0.02456752
-0.02455074
-0.02455074
-0.02484655
-0.02484655
-0.02458759
-0.02458759
-0.02461597
-0.02461597
-0.02470482
-0.02470482
-0.02483062
-0.02483062
-0.02458910
-0.02458910
-0.02464101
-0.02464101
-0.02455523
-0.02455523
-0.02477916
-0.02477916
-0.02455158
-0.02455158
-0.02460902
-0.02460902
-0.02477036
-0.02477036
0.00096182
0.00096182
0.00096623
0.00096623
0.00101116
0.00101116
0.00108983
0.00108983
0.00106250
0.00106250
0.00112326
0.00112326
0.00095282
0.00095282
0.00102768
0.00102768
0.00113256
0.00113256
0.00109512
0.00109512
0.00090623
0.00090623
0.00092197
0.00092197
0.00094370
0.00094370
0.00108304
0.00108304
0.00104848
0.00104848
0.00113014
0.00113014
0.00103946
0.00103946
0.00113469
0.00113469
0.00114867
0.00114867
0.00103066
0.00103066
0.00117386
0.00117386
0.00116732
0.00116732
0.00108318
0.00108318
0.00108790
0.00108790
0.00101346
0.00101346
0.00107529
0.00107529
0.00112195
0.00112195
0.00114861
0.00114861
0.00110185
0.00110185
0.00102771
0.00102771
0.00108355
0.00108355
0.00094027
0.00094027
0.00105341
0.00105341
0.00098927
0.00098927
0.00109416
0.00109416
0.00106638
0.00106638
0.00116130
0.00116130
0.00101882
0.00101882
0.00111828
0.00111828
0.00093677
0.00093677
0.00110983
0.00110983
0.00092568
0.00092568
0.02986172
0.02986172
0.02976948
0.02976948
0.02988399
0.02988399
0.03002625
0.03002625
0.02982931
0.02982931
0.02989068
0.02989068
0.02989028
0.02989028
0.02986787
0.02986787
0.02980617
0.02980617
0.03003451
0.03003451
0.02992480
0.02992480
0.02993459
0.02993459
0.02968674
0.02968674
0.02976161
0.02976161
0.02990545
0.02990545
0.02988249
0.02988249
0.02992048
0.02992048
0.02998980
0.02998980
0.02994922
0.02994922
0.02997357
0.02997357
0.02966738
0.02966738
0.02999780
0.02999780
0.02988165
0.02988165
0.02998233
0.02998233
0.02993370
0.02993370
0.02997753
0.02997753
0.02995671
0.02995671
0.02997007
0.02997007
0.03003129
0.03003129
0.02992880
0.02992880
0.03002645
0.03002645
0.02998272
0.02998272
0.03001902
0.03001902
0.02998144
0.02998144
0.02992468
0.02992468
0.02991076
0.02991076
0.02996164
0.02996164
0.02996390
0.02996390
0.02992974
0.02992974
0.02992093
0.02992093
0.02991848
0.02991848
0.03002991
0.03002991
0.02996001
0.02996001
0.02989393
0.02989393
0.03000854
0.03000854
0.02993017
0.02993017
0.02979328
0.02979328
0.02997513
0.02997513
0.06174939
0.06174939
0.06176968
0.06176968
0.06163268
0.06163268
0.06157601
0.06157601
0.06179035
0.06179035
0.06174800
0.06174800
0.06153271
0.06153271
0.06175354
0.06175354
0.06176671
0.06176671
0.06136179
0.06136179
0.06179775
0.06179775
0.06167779
0.06167779
0.06172483
0.06172483
0.06159568
0.06159568
0.06165906
0.06165906
0.06160650
0.06160650
0.06170120
0.06170120
0.06158987
0.06158987
0.06173653
0.06173653
0.06175469
0.06175469
0.06161596
0.06161596
0.06162249
0.06162249
0.06173605
0.06173605
0.06176374
0.06176374
0.06160419
0.06160419
0.06174493
0.06174493
0.06176187
0.06176187
0.06164314
0.06164314
0.06164385
0.06164385
0.06170737
0.06170737
0.06166972
0.06166972
0.06161167
0.06161167
0.06171645
0.06171645
0.06161910
0.06161910
0.06168447
0.06168447
0.06178528
0.06178528
0.06167066
0.06167066
0.06163609
0.06163609
0.06162952
0.06162952
0.06173309
0.06173309
0.06176716
0.06176716
0.06174448
0.06174448
0.06169247
0.06169247
0.06175990
0.06175990
0.06161194
0.06161194
0.06171834
0.06171834
0.06180009
0.06180009
0.06179639
0.06179639
0.06174042
0.06174042
0.06170128
0.06170128
0.06169809
0.06169809
0.06160782
0.06160782
0.06153884
0.06153884
0.06162508
0.06162508
0.09607068
0.09607068
0.09604097
0.09604097
0.09595485
0.09595485
0.09605874
0.09605874
0.09614533
0.09614533
0.09584755
0.09584755
0.09614859
0.09614859
0.09609875
0.09609875
0.09607729
0.09607729
0.09609772
0.09609772
0.09596759
0.09596759
0.09618058
0.09618058
0.09605515
0.09605515
0.09613316
0.09613316
0.09604258
0.09604258
0.09610366
0.09610366
0.09605374
0.09605374
0.09599758
0.09599758
0.09613060
0.09613060
0.09592037
0.09592037
0.09619688
0.09619688
0.09615867
0.09615867
0.09614254
0.09614254
0.09611760
0.09611760
0.09606335
0.09606335
0.09601614
0.09601614
0.09611038
0.09611038
0.09597457
0.09597457
0.09606088
0.09606088
0.09618532
0.09618532
0.09615916
0.09615916
0.09603132
0.09603132
0.09617867
0.09617867
0.09616611
0.09616611
0.09588346
0.09588346
0.09607880
0.09607880
0.09613706
0.09613706
0.09601393
0.09601393
0.09598169
0.09598169
0.09609524
0.09609524
0.09604331
0.09604331
0.09580718
0.09580718
0.09620735
0.09620735
0.09623547
0.09623547
0.09591303
0.09591303
0.09608138
0.09608138
0.09619863
0.09619863
0.09612928
0.09612928
0.09620007
0.09620007
0.09595217
0.09595217
0.09608941
0.09608941
0.09606159
0.09606159
0.09620598
0.09620598
0.09617692
0.09617692
0.09611858
0.09611858
0.09612881
0.09612881
0.09614583
0.09614583
0.09616494
0.09616494
0.09616000
0.09616000
0.09609523
0.09609523


SCALARS phi_u double
LOOKUP_TABLE default 
0.09954129
0.09954129
0.09747410
0.09747410
0.09746982
0.09746982
0.09732297
0.09732297
0.09738892
0.09738892
0.09734321
0.09734321
0.09751846
0.09751846
0.09090088
0.09090088
0.09093540
0.09093540
0.09113470
0.09113470
0.09090429
0.09090429
0.09111886
0.09111886
0.09103671
0.09103671
0.09103647
0.09103647
0.09103034
0.09103034
0.09117936
0.09117936
0.09089715
0.09089715
0.09103750
0.09103750
0.09093746
0.09093746
0.08019778
0.08019778
0.08032648
0.08032648
0.08021095
0.08021095
0.08051676
0.08051676
0.08035553
0.08035553
0.08031580
0.08031580
0.08037507
0.08037507
0.08053479
0.08053479
0.08035269
0.08035269
0.08046118
0.08046118
0.08028777
0.08028777
0.08054870
0.08054870
0.08029325
0.08029325
0.08041948
0.08041948
0.08027116
0.08027116
0.08043387
0.08043387
0.08031405
0.08031405
0.08045557
0.08045557
0.06553352
0.06553352
0.06582868
0.06582868
0.06554957
0.06554957
0.06559159
0.06559159
0.06549675
0.06549675
0.06564577
0.06564577
0.06571584
0.06571584
0.06555064
0.06555064
0.06560572
0.06560572
0.06551441
0.06551441
0.06549013
0.06549013
0.06544524
0.06544524
0.06550899
0.06550899
0.06577142
0.06577142
0.06543840
0.06543840
0.06553313
0.06553313
0.06561797
0.06561797
0.06575572
0.06575572
0.06558055
0.06558055
0.06546709
0.06546709
0.06551897
0.06551897
0.06548371
0.06548371
0.06556963
0.06556963
0.06549638
0.06549638
0.04692063
0.04692063
0.04684451
0.04684451
0.04697094
0.04697094
0.04685877
0.04685877
0.04704615
0.04704615
0.04681180
0.04681180
0.04690383
0.04690383
0.04685367
0.04685367
0.04689759
0.04689759
0.04683941
0.04683941
0.04688124
0.04688124
0.04688731
0.04688731
0.04684646
0.04684646
0.04694277
0.04694277
0.04684367
0.04684367
0.04702524
0.04702524
0.04684571
0.04684571
0.04689457
0.04689457
0.04690685
0.04690685
0.04703996
0.04703996
0.04701609
0.04701609
0.04695917
0.04695917
0.04681799
0.04681799
0.04692740
0.04692740
0.04681934
0.04681934
0.04690057
0.04690057
0.04693956
0.04693956
0.04679974
0.04679974
0.04709496
0.04709496
0.04692886
0.04692886
0.02460325
0.02460325
0.02453321
0.02453321
0.02460957
0.02460957
0.02462222
0.02462222
0.02476729
0.02476729
0.02468452
0.02468452
0.02458614
0.02458614
0.02460194
0.02460194
0.02453359
0.02453359
0.02462552
0.02462552
0.02479176
0.02479176
0.02455287
0.02455287
0.02462001
0.02462001
0.02456106
0.02456106
0.02465501
0.02465501
0.02482395
0.02482395
0.02463175
0.02463175
0.02486511
0.02486511
0.02470668
0.02470668
0.02462785
0.02462785
0.02461427
0.02461427
0.02489612
0.02489612
0.02456752
0.02456752
0.02455074
0.02455074
0.02484655
0.02484655
0.02458759
0.02458759
0.02461597
0.02461597
0.02470482
0.02470482
0.02483062
0.02483062
0.02458910
0.02458910
0.02464101
0.02464101
0.02455523
0.02455523
0.02477916
0.02477916
0.02455158
0.02455158
0.02460902
0.02460902
0.02477036
0.02477036
-0.00096182
-0.00096182
-0.00096623
-0.00096623
-0.00101116
-0.00101116
-0.00108983
-0.00108983
-0.00106250
-0.00106250
-0.00112326
-0.00112326
-0.00095282
-0.00095282
-0.00102768
-0.00102768
-0.00113256
-0.00113256
-0.00109512
-0.00109512
-0.00090623
-0.00090623
-0.00092197
-0.00092197
-0.00094370
-0.00094370
-0.00108304
-0.00108304
-0.00104848
-0.00104848
-0.00113014
-0.00113014
-0.00103946
-0.00103946
-0.00113469
-0.00113469
-0.00114867
-0.00114867
-0.00103066
-0.00103066
-0.00117386
-0.00117386
-0.00116732
-0.00116732
-0.00108318
-0.00108318
-0.00108790
-0.00108790
-0.00101346
-0.00101346
-0.00107529
-0.00107529
-0.00112195
-0.00112195
-0.00114861
-0.00114861
-0.00110185
-0.00110185
-0.00102771
-0.00102771
-0.00108355
-0.00108355
-0.00094027
-0.00094027
-0.00105341
-0.00105341
-0.00098927
-0.00098927
-0.00109416
-0.00109416
-0.00106638
-0.00106638
-0.00116130
-0.00116130
-0.00101882
-0.00101882
-0.00111828
-0.00111828
-0.00093677
-0.00093677
-0.00110983
-0.00110983
-0.00092568
-0.00092568
-0.00691996
-0.00691996
-0.00688463
-0.00688463
-0.00699188
-0.00699188
-0.00695216
-0.00695216
-0.00690051
-0.00690051
-0.00699655
-0.00699655
-0.00700014
-0.00700014
-0.00688594
-0.00688594
-0.00698321
-0.00698321
-0.00698037
-0.00698037
-0.00703453
-0.00703453
-0.00690584
-0.00690584
-0.00681185
-0.00681185
-0.00684663
-0.00684663
-0.00695848
-0.00695848
-0.00695684
-0.00695684
-0.00701352
-0.00701352
-0.00699767
-0.00699767
-0.00704112
-0.00704112
-0.00696766
-0.00696766
-0.00700476
-0.00700476
-0.00697748
-0.00697748
-0.00694199
-0.00694199
-0.00697969
-0.00697969
-0.00703003
-0.00703003
-0.00697250
-0.00697250
-0.00694979
-0.00694979
-0.00701284
-0.00701284
-0.00695644
-0.00695644
-0.00698209
-0.00698209
-0.00700990
-0.00700990
-0.00699672
-0.00699672
-0.00697476
-0.00697476
-0.00700893
-0.00700893
-0.00692447
-0.00692447
-0.00699643
-0.00699643
-0.00693102
-0.00693102
-0.00690638
-0.00690638
-0.00699687
-0.00699687
-0.00694009
-0.00694009
-0.00703720
-0.00703720
-0.00701480
-0.00701480
-0.00701422
-0.00701422
-0.00696423
-0.00696423
-0.00697586
-0.00697586
-0.00699084
-0.00699084
-0.00690517
-0.00690517
-0.00690478
-0.00690478
-0.00888746
-0.00888746
-0.00886866
-0.00886866
-0.00883786