# vtk DataFile Version 3.0
Visualize mesh data
ASCII

DATASET UNSTRUCTURED_GRID
POINTS 572 double
-0.00502204 -0.30232584 -0.05319140
-0.00502204 -0.29834025 0.00925436
-0.06168487 -0.36549866 -0.02876571
-0.06130181 -0.36258907 0.01382627
0.01414764 -0.37055197 -0.02870396
0.01376588 -0.36765218 0.01374463
0.07460062 -0.30652112 -0.04893599
0.07329487 -0.30293359 0.01000851
0.08242685 -0.38278887 -0.02015135
0.08204155 -0.37986219 0.01533760
0.14112544 -0.35249594 -0.02511094
0.14010551 -0.35003362 0.01448225
-0.16435225 -0.25174704 -0.05373571
-0.16173968 -0.24863350 0.00901727
-0.22027624 -0.30209965 -0.02747730
-0.21857344 -0.29988052 0.01407603
-0.14326794 -0.32209656 -0.03580347
-0.14202088 -0.31908589 0.01260693
-0.10776394 -0.22034061 -0.06945190
-0.10651273 -0.21690295 0.00617825
-0.08137125 -0.29207295 -0.05292819
-0.07999352 -0.28828767 0.00926550
-0.03422078 -0.22908592 -0.07280449
-0.03330664 -0.22567430 0.00555121
0.04084861 -0.23600945 -0.07089183
0.03995233 -0.23266448 0.00593309
0.15821294 -0.28911480 -0.04412994
0.15679509 -0.28569179 0.01091072
0.11786643 -0.23416764 -0.06502489
0.11667516 -0.23089465 0.00698235
0.20651811 -0.23424061 -0.04999033
0.20402405 -0.23126830 0.00991609
0.22562414 -0.32032064 -0.02004806
0.22380258 -0.31794673 0.01544722
0.27708229 -0.26548812 -0.02344004
0.27457298 -0.26356265 0.01458560
-0.24782620 -0.15437876 -0.05642531
-0.24423349 -0.15230450 0.00857299
-0.30602673 -0.21346308 -0.02778295
-0.30374328 -0.21171093 0.01398948
-0.23211944 -0.22541794 -0.04620681
-0.22975620 -0.22260154 0.01055738
-0.16933604 -0.16753909 -0.07121364
-0.16687759 -0.16508064 0.00591745
-0.08374223 -0.15647823 -0.08412490
-0.08307362 -0.15398294 0.00322164
-0.00393691 -0.16212794 -0.08676187
-0.00393691 -0.15987031 0.00285684
0.07317467 -0.16519149 -0.08354322
0.07250922 -0.16270800 0.00339003
0.15079576 -0.16821851 -0.07414744
0.14826210 -0.16568485 0.00534336
0.21916986 -0.15604971 -0.06312672
0.21612494 -0.15429173 0.00731636
0.27631658 -0.18536437 -0.04302130
0.27332063 -0.18363465 0.01118057
-0.27538320 -0.08067459 -0.05794350
-0.27134451 -0.07996246 0.00815448
-0.32351166 -0.14486897 -0.03506855
-0.32047131 -0.14360961 0.01269250
-0.20143153 -0.09138270 -0.07523052
-0.19793783 -0.09044656 0.00501018
-0.12716071 -0.09439018 -0.08738068
-0.12527599 -0.09250546 0.00274126
-0.04516717 -0.09064802 -0.09485821
-0.04506287 -0.08818592 0.00105101
0.03407323 -0.09333170 -0.09505186
0.03407323 -0.09090900 0.00111961
0.11306811 -0.09617622 -0.08892152
0.11115657 -0.09426468 0.00248277
0.19003950 -0.09051048 -0.07759545
0.18646504 -0.08955271 0.00450023
0.33781397 -0.13533308 -0.03143260
0.33496223 -0.13415184 0.01336558
0.27231094 -0.09767238 -0.05723915
0.26834507 -0.09697309 0.00815448
0.34993279 -0.06004954 -0.03484819
0.34675480 -0.05963115 0.01277022
-0.32414496 -0.00936081 -0.04596112
-0.32037258 -0.00886417 0.01056345
-0.40304726 -0.03944178 -0.01432887
-0.40046243 -0.03910148 0.01659822
-0.34493497 -0.07585603 -0.03555635
-0.34186331 -0.07531441 0.01260024
-0.24324422 -0.01601437 -0.06983290
-0.23962703 -0.01537656 0.00610110
-0.16584250 -0.02098006 -0.08592907
-0.16330179 -0.02029928 0.00300734
-0.08829875 -0.02305877 -0.09582714
-0.08618666 -0.02183935 0.00098484
-0.00809595 -0.02194119 -0.09972647
-0.00809595 -0.02084238 0.00022912
0.07073234 -0.02419427 -0.09720186
0.06979939 -0.02365563 0.00079453
0.14765759 -0.02307665 -0.08876929
0.14505018 -0.02237800 0.00250184
0.22583300 -0.02375471 -0.07387636
0.22205998 -0.02308942 0.00532906
0.29375604 -0.02306189 -0.05560217
0.28965617 -0.02233897 0.00867440
0.34924269 0.02615374 -0.03666726
0.34596669 0.02572245 0.01241969
-0.34172124 0.06063133 -0.03784350
-0.33838032 0.06019149 0.01221624
-0.40080589 0.02971390 -0.01568100
-0.39813327 0.02936204 0.01629639
-0.27312693 0.05525230 -0.06038997
-0.26987521 0.05467893 0.00787212
-0.19964924 0.05224367 -0.07847372
-0.19603784 0.05127599 0.00447047
-0.12469024 0.04994693 -0.09093777
-0.12266005 0.04877480 0.00211984
-0.04840445 0.04814200 -0.09766695
-0.04746785 0.04760125 0.00071355
0.03055257 0.04753089 -0.09840242
0.02961061 0.04698705 0.00054017
0.10933916 0.04663773 -0.09290979
0.10727419 0.04544552 0.00174224
0.19001074 0.04520064 -0.08074096
0.18632263 0.04421241 0.00396506
0.27135354 0.04944070 -0.06120906
0.26806923 0.04886159 0.00773723
0.34642977 0.09701128 -0.03304622
0.34349637 0.09649405 0.01294261
-0.39324334 0.11119282 -0.01268605
-0.39078361 0.11039361 0.01676486
-0.24129935 0.12422757 -0.06246672
-0.23827589 0.12248198 0.00747999
-0.31700256 0.12827429 -0.03971008
-0.31372211 0.12691548 0.01182268
-0.16510811 0.12267772 -0.07861612
-0.16246397 0.12003358 0.00434095
-0.08872142 0.12159519 -0.08860663
-0.08681599 0.11968976 0.00250545
-0.01278904 0.11876011 -0.09284059
-0.01278904 0.11637695 0.00176118
0.06468692 0.11777168 -0.09093157
0.06397582 0.11511783 0.00196516
0.14134040 0.11565756 -0.08318166
0.13952793 0.11384509 0.00348559
0.21577458 0.11495933 -0.06965235
0.21249884 0.11306808 0.00613084
0.28368801 0.12197593 -0.05112723
0.28033476 0.12003993 0.00953881
0.39325148 0.15478703 -0.00630805
0.39137585 0.15401012 0.01809916
-0.20587534 0.19283251 -0.05939094
-0.20378169 0.19033741 0.00794589
-0.28418738 0.19200325 -0.03934673
-0.28138871 0.18985576 0.01185077
-0.12872490 0.19278739 -0.07276044
-0.12629100 0.18988679 0.00551985
-0.05182300 0.19301128 -0.07982705
-0.05084299 0.18935385 0.00417440
0.02293214 0.18846326 -0.08181248
0.02193525 0.18474280 0.00363638
0.10117452 0.18724017 -0.07709000
0.09982387 0.18352931 0.00455064
0.14461993 0.25119492 -0.05707166
0.14274890 0.24724835 0.00815807
0.17909791 0.18486080 -0.06630764
0.17682470 0.18215169 0.00680443
0.32572159 0.18034413 -0.02810637
0.32305416 0.17923925 0.01379640
0.25002030 0.19149376 -0.04911540
0.24679294 0.18901733 0.00992445
-0.24023604 0.26056761 -0.03508887
-0.23824742 0.25819766 0.01267702
-0.16539800 0.26246685 -0.05066011
-0.16292758 0.25924733 0.00962576
-0.08986747 0.26285598 -0.06064073
-0.08873469 0.25974367 0.00783140
-0.12863044 0.33166564 -0.03458658
-0.12740900 0.32871680 0.01282948
-0.01326856 0.26441920 -0.06431655
-0.01326856 0.26085248 0.00714351
0.05895420 0.25516510 -0.06509850
0.05811320 0.25202644 0.00698799
0.10419636 0.30580702 -0.04637477
0.10293360 0.30233763 0.01062880
0.21491084 0.26134056 -0.04101775
0.21271853 0.25872788 0.01164049
0.17662825 0.33020821 -0.02723513
0.17556594 0.32764357 0.01400326
-0.05196769 0.33146188 -0.04203627
-0.05148745 0.32781405 0.01136242
0.02741895 0.33461159 -0.04195718
0.02693946 0.33096953 0.01135720
0.09788936 0.36742178 -0.02488861
0.09706994 0.36500810 0.01431321
0.15118247 0.40302274 -0.00261650
0.15049121 0.40135388 0.01881134
-0.25134608 -0.42639241 0.03108420
-0.25172531 -0.42693400 0.02481760
-0.29723072 -0.47653133 0.07261147
-0.29966980 -0.48001469 0.03230650
-0.22120002 -0.49375039 0.05899992
-0.22248934 -0.49651535 0.03008404
-0.17583768 -0.44149065 0.02013233
-0.17572357 -0.44123435 0.02283592
-0.14219531 -0.50283849 0.04739579
-0.14273219 -0.50484214 0.02797618
-0.09564843 -0.44380710 0.00899687
-0.09543095 -0.44278394 0.02090798
-0.06548007 -0.50501484 0.03937676
-0.06560162 -0.50640423 0.02640093
-0.02560280 -0.43543482 0.00014391
-0.02560280 -0.43375165 0.01920276
0.00689645 -0.50381428 0.03621551
0.00689645 -0.50486608 0.02593309
0.04858573 -0.44368598 0.00513568
0.04842290 -0.44244911 0.02013397
0.08447705 -0.50323844 0.03999146
0.08476302 -0.50458382 0.02659313
0.12979025 -0.43819317 0.01053878
0.12959815 -0.43728942 0.02105984
0.15724473 -0.50518292 0.05143400
0.15787400 -0.50753140 0.02867226
0.20727703 -0.45278984 0.03281053
0.20759219 -0.45349771 0.02534361
0.23426476 -0.51218623 0.07369175
0.23640254 -0.51677071 0.03264964
0.28369698 -0.46502686 0.06139042
0.28557301 -0.46770610 0.03038965
-0.34702477 -0.33460149 0.02386322
-0.34704652 -0.33462108 0.02357811
-0.39673471 -0.38329184 0.06592032
-0.39935311 -0.38591023 0.03125364
-0.32504967 -0.40692407 0.04632821
-0.32618110 -0.40848136 0.02777880
-0.27585623 -0.35561830 0.00700560
-0.27516779 -0.35467074 0.02056747
-0.20321342 -0.37254363 -0.00549189
-0.20238215 -0.37067657 0.01817278
-0.12875788 -0.38687554 -0.01309839
-0.12779431 -0.38454928 0.01677035
0.19049564 -0.38790300 -0.00179968
0.18976643 -0.38626517 0.01895952
0.25906113 -0.39633214 0.01920029
0.25888677 -0.39609216 0.02263508
0.32986280 -0.40931091 0.04932078
0.33114502 -0.41107573 0.02829938
0.29982609 -0.34078148 0.00894877
0.29921833 -0.33998944 0.02079164
0.37992337 -0.35451096 0.04561123
0.38129424 -0.35574530 0.02764190
-0.43670797 -0.23654313 0.03205212
-0.43731970 -0.23689632 0.02514668
-0.48761547 -0.28185537 0.07368972
-0.49127900 -0.28397052 0.03233440
-0.41832635 -0.31020921 0.04631778
-0.41996256 -0.31135490 0.02773420
-0.36438534 -0.26294035 0.00664356
-0.36347849 -0.26224450 0.02038574
-0.29094926 -0.28331435 -0.01382796
-0.28896788 -0.28153031 0.01653256
0.34919268 -0.29321173 0.01000484
0.34847094 -0.29256187 0.02106405
0.43182984 -0.30132726 0.04986771
0.43371921 -0.30265021 0.02840877
0.39587808 -0.24440740 0.01481893
0.39533566 -0.24409423 0.02191102
0.45642731 -0.22466849 0.03907135
0.45766386 -0.22524510 0.02637753
-0.45422933 -0.16173452 0.02391913
-0.45426063 -0.16174469 0.02359847
-0.50550604 -0.20552146 0.06201156
-0.50857511 -0.20695260 0.03050605
-0.38159081 -0.19137435 -0.00430319
-0.37984771 -0.19065233 0.01837961
0.33706185 -0.21450025 -0.01672182
0.33490263 -0.21284342 0.01599854
0.40351418 -0.16966157 0.00089421
0.40209190 -0.16907244 0.01940210
0.51184636 -0.20391499 0.06547501
0.51519652 -0.20547719 0.03108405
0.47119361 -0.14348418 0.02971908
0.47168119 -0.14364260 0.02472505
0.55019468 -0.14991117 0.07853034
0.55550205 -0.15133327 0.03356317
-0.46399921 -0.08182974 0.01795205
-0.46361914 -0.08178979 0.02237717
-0.51817507 -0.12575513 0.05402114
-0.52073953 -0.12644228 0.02916607
-0.40010801 -0.11944151 -0.00865135
-0.39791660 -0.11872948 0.01758682
[...]
POINT_DATA 572

SCALARS kkt_multipliers double
LOOKUP_TABLE default 
0.00000000
0.00000000
0.00000000
0.00000000
0.00000000
0.00000000
0.00000000
0.00000000
0.00000000
0.00000000
0.00000000
0.00000000
0.00000000
0.00000000
0.00000000
0.00000000
0.00000000
0.00000000
0.00000000
0.00000000
0.00000000
0.00000000
0.00000000
0.00000000
0.00000000
0.00000000
0.00000000
0.00000000
0.00000000
0.00000000
0.00000000
0.00000000
0.00000000
0.00000000
0.00000000
0.00000000
0.00000000
0.00000000
0.00000000
0.00000000
0.00000000
0.00000000
0.00000000
0.00000000
0.00000000
0.00000000
0.00000000
0.00000000
0.00000000
0.00000000
0.00000000
0.00000000
0.00000000
0.00000000
0.00000000
0.00000000
0.00000000
0.00000000
0.00000000
0.00000000
0.00000000
0.00000000
0.00000000
0.00000000
0.00000000
0.00000000
0.00000000
0.00000000
0.00000000
0.00000000
0.00000000
0.00000000
0.00000000
0.00000000
0.00000000
0.00000000
0.00000000
0.00000000
0.00000000
0.00000000
0.00000000
0.00000000
0.00000000
0.00000000
0.00000000
0.00000000
0.00000000
0.00000000
0.00000000
0.00000000
0.00000000
0.00000000
0.00000000
0.00000000
0.00000000
0.00000000
0.00000000
0.00000000
0.00000000
0.00000000
0.00000000
0.00000000
0.00000000
0.00000000
0.00000000
0.00000000
0.00000000
0.00000000
0.00000000
0.00000000
0.00000000
0.00000000
0.00000000
0.00000000
0.00000000
0.00000000
0.00000000
0.00000000
0.00000000
0.00000000
0.00000000
0.00000000
0.00000000
0.00000000
0.00000000
0.00000000
0.00000000
0.00000000
0.00000000
0.00000000
0.00000000
0.00000000
0.00000000
0.00000000
0.00000000
0.00000000
0.00000000
0.00000000
0.00000000
0.00000000
0.00000000
0.00000000
0.00000000
0.00000000
0.00000000
0.00000000
0.00000000
0.00000000
0.00000000
0.00000000
0.00000000
0.00000000
0.00000000
0.00000000
0.00000000
0.00000000
0.00000000
0.00000000
0.00000000
0.00000000
0.00000000
0.00000000
0.00000000
0.00000000
0.00000000
0.00000000
0.00000000
0.00000000
0.00000000
0.00000000
0.00000000
0.00000000
0.00000000
0.00000000
0.00000000
0.00000000
0.00000000
0.00000000
0.00000000
0.00000000
0.00000000
0.00000000
0.00000000
0.00000000
0.00000000
0.00000000
0.00000000
0.00000000
0.00000000
0.00000000
0.00000000
0.00000000
0.00000000
0.00000000
0.00000000
0.00000000
0.00000000
0.00000000
0.00000000
0.00000000
0.00000000
0.00000000
0.00000000
0.00000000
0.00000000
0.00000000
0.00000000
0.00000000
0.00000000
0.00000000
0.00000000
0.00000000
0.00000000
0.00000000
0.00000000
0.00000000
0.00000000
0.00000000
0.00000000
0.00000000
0.00000000
0.00000000
0.00000000
0.00000000
0.00000000
0.00000000
0.00000000
0.00000000
0.00000000
0.00000000
0.00000000
0.00000000
0.00000000
0.00000000
0.00000000
0.00000000
0.00000000
0.00000000
0.00000000
0.00000000
0.00000000
0.00000000
0.00000000
0.00000000
0.00000000
0.00000000
0.00000000
0.00000000
0.00000000
0.00000000
0.00000000
0.00000000
0.00000000
0.00000000
0.00000000
0.00000000
0.00000000
0.00000000
0.00000000
0.00000000
0.00000000
0.00000000
0.00000000
0.00000000
0.00000000
0.00000000
0.00000000
0.00000000
0.00000000
0.00000000
0.00000000
0.00000000
0.00000000
0.00000000
0.00000000
0.00000000
0.00000000
0.00000000
0.00000000
0.00000000
0.00000000
0.00000000
0.00000000
0.00000000
0.00000000
0.00000000
0.00000000
0.00000000
0.00000000
0.00000000
0.00000000
0.00000000
0.00000000
0.00000000
0.00000000
0.00000000
0.00000000
0.00000000
0.00000000
0.00000000
0.00000000
0.00000000
0.00000000
0.00000000
0.00000000
0.00000000
0.00000000
0.00000000
0.00000000
0.00000000
0.00000000
0.00000000
0.00000000
0.00000000
0.00000000
0.00000000
0.00000000
0.00000000
0.00000000
0.00000000
0.00000000
0.00000000
0.00000000
0.00000000
0.00000000
0.00000000
0.00000000
0.00000000
0.00000000
0.00000000
0.00000000
0.00000000
0.00000000
0.00000000
0.00000000
0.00000000
0.00000000
0.00000000
0.00000000
0.00000000
0.00000000
0.00000000
0.00000000
0.00000000
0.00000000
0.00000000
0.00000000
0.00000000
0.00000000
0.00000000
0.00000000
0.00000000
0.00000000
0.00000000
0.00000000
0.00000000
0.00000000
0.00000000
0.00000000
0.00000000
0.00000000
0.00000000
0.00000000
0.00000000
0.00000000
0.00000000
0.00000000
0.00000000
0.00000000
0.00000000
0.00000000
0.00000000
0.00000000
0.00000000
0.00000000
0.00000000
0.00000000
0.00000000
0.00000000
0.00000000
0.00000000
0.00000000
0.00000000
0.00000000
0.00000000
0.00000000
0.00000000
0.00000000
0.00000000
0.00000000
0.00000000
0.00000000
0.00000000
0.00000000
0.00000000
0.00000000
0.00000000
0.00000000
0.00000000
0.00000000
0.00000000
0.00000000
0.00000000
0.00000000
0.00000000
0.00000000
0.00000000
0.00000000
0.00000000
0.00000000
0.00000000
0.00000000
0.00000000
0.00000000
0.00000000
0.00000000
0.00000000
0.00000000
0.00000000
0.00000000
0.00000000
0.00000000
0.00000000
0.00000000
0.00000000
0.00000000
0.00000000
0.00000000
0.00000000
0.00000000
0.00000000
0.00000000
0.00000000
0.00000000
0.00000000
0.00000000
0.00000000
0.00000000
0.00000000
0.00000000
0.00000000
0.00000000
0.00000000
0.00000000
0.00000000
0.00000000
0.00000000
0.00000000
0.00000000
0.00000000
0.00000000
0.00000000
0.00000000
0.00000000
0.00000000
0.00000000
0.00000000
0.00000000
0.00000000
0.00000000
0.00000000
0.00000000
0.00000000
0.00000000
0.00000000
0.00000000
0.00000000
0.00000000
0.00000000
0.00000000
0.00000000
0.00000000
0.00000000
0.00000000
0.00000000
0.00000000
0.00000000
0.00000000
0.00000000
0.00000000
0.00000000
0.00000000
0.00000000
0.00000000
0.00000000
0.00000000
0.00000000
0.00000000
0.00000000
0.00000000
0.00000000
0.00000000
0.00000000
0.00000000
0.00000000
0.00000000
0.00000000
0.00000000
0.00000000
0.00000000
0.00000000
0.00000000
0.00000000
0.00000000
0.00000000
0.00000000
0.00000000
0.00000000
0.00000000
0.00000000
0.00000000
0.00000000
0.00000000
0.00000000
0.00000000
0.00000000
0.00000000
0.00000000
0.00000000
0.00000000
0.00000000
0.00000000
0.00000000
0.00000000
0.00000000
0.00000000
0.00000000
0.00000000
0.00000000
0.00000000
0.00000000
0.00000000
0.00000000
0.00000000
0.00000000
0.00000000
0.00000000
0.00000000
0.00000000
0.00000000
0.00000000
0.00000000
0.00000000
0.00000000
0.00000000
0.00000000
0.00000000
0.00000000
0.00000000
0.00000000
0.00000000
0.00000000
0.00000000
0.00000000
0.00000000
0.00000000
0.00000000
0.00000000
0.00000000
0.00000000
0.00000000
0.00000000
0.00000000
0.00000000
0.00000000
0.00000000
0.00000000
0.00000000
0.00000000
0.00000000
0.00000000
0.00000000


SCALARS phi0 double
LOOKUP_TABLE default 
0.06257282
0.06257282
0.04269297
0.04269297
0.04254924
0.04254924
0.05906800
0.05906800
0.03561151
0.03561151
0.03968278
0.03968278
0.06288447
0.06288447
0.04164736
0.04164736
0.04851996
0.04851996
0.07571858
0.07571858
0.06232400
0.06232400
0.07843526
0.07843526
0.07690293
0.07690293
0.05516522
0.05516522
0.07209143
0.07209143
0.06003194
0.06003194
0.03562118
0.03562118
0.03815695
0.03815695
0.06513055
0.06513055
0.04187147
0.04187147
0.05688312
0.05688312
0.07720940
0.07720940
0.08738473
0.08738473
0.08964714
0.08964714
0.08697126
0.08697126
0.07957151
0.07957151
0.07053077
0.07053077
0.05431215
0.05431215
0.06622508
0.06622508
0.04787429
0.04787429
0.08032217
0.08032217
0.09016135
0.09016135
0.09594087
0.09594087
0.09620198
0.09620198
0.09144426
0.09144426
0.08217904
0.08217904
0.04490440
0.04490440
0.06551751
0.06551751
0.04772617
0.04772617
0.05665248
0.05665248
0.03103679
0.03103679
0.04825749
0.04825749
0.07602278
0.07602278
0.08897530
0.08897530
0.09684270
0.09684270
0.09996163
0.09996163
0.09800231
0.09800231
0.09131105
0.09131105
0.07929803
0.07929803
0.06441124
0.06441124
0.04919804
0.04919804
0.05017303
0.05017303
0.03209082
0.03209082
0.06834190
0.06834190
0.08302842
0.08302842
0.09308713
0.09308713
0.09838645
0.09838645
0.09894856
0.09894856
0.09468205
0.09468205
0.08479204
0.08479204
0.06902690
0.06902690
0.04608519
0.04608519
0.02956425
0.02956425
0.07003378
0.07003378
0.05165494
0.05165494
0.08304131
0.08304131
0.09115192
0.09115192
0.09463178
0.09463178
0.09293735
0.09293735
0.08670514
0.08670514
0.07587753
0.07587753
0.06078948
0.06078948
0.02449150
0.02449150
0.06741556
0.06741556
0.05131888
0.05131888
0.07837181
0.07837181
0.08408674
0.08408674
0.08553562
0.08553562
0.08173609
0.08173609
0.06537579
0.06537579
0.07319755
0.07319755
0.04200212
0.04200212
0.05917983
0.05917983
0.04786598
0.04786598
0.06042230
0.06042230
0.06855218
0.06855218
0.04752337
0.04752337
0.07154901
0.07154901
0.07215969
0.07215969
0.05712301
0.05712301
0.05276858
0.05276858
0.04133172
0.04133172
0.05352530
0.05352530
0.05344079
0.05344079
0.03928460
0.03928460
0.02150384
0.02150384
0.00630139
0.00630139
0.04052869
0.04052869
0.02907637
0.02907637
0.00271812
0.00271812
0.01953008
0.01953008
0.01195695
0.01195695
0.01305056
0.01305056
0.01913303
0.01913303
0.01033607
0.01033607
0.01505008
0.01505008
0.01346875
0.01346875
0.01056155
0.01056155
0.02289123
0.02289123
0.00750702
0.00750702
0.04135266
0.04135266
0.03117284
0.03117284
0.00028661
0.00028661
0.03486388
0.03486388
0.01864902
0.01864902
0.01361236
0.01361236
0.02375276
0.02375276
0.02997468
0.02997468
0.02083647
0.02083647
0.00344758
0.00344758
0.02113428
0.02113428
0.01188488
0.01188488
0.01806376
0.01806376
0.00694148
0.00694148
0.04157112
0.04157112
0.01869062
0.01869062
0.01378964
0.01378964
0.03047736
0.03047736
0.01110177
0.01110177
0.02158255
0.02158255
0.00711970
0.00711970
0.01276693
0.01276693
0.00032234
0.00032234
0.03168698
0.03168698
0.02276114
0.02276114
0.03283336
0.03283336
0.01857181
0.01857181
0.03458905
0.03458905
0.00502028
0.00502028
0.04530162
0.04530162
0.00444159
0.00444159
0.02499647
0.02499647
0.02633915
0.02633915
0.02510497
0.02510497
0.00474376
0.00474376
0.02391639
0.02391639
0.00583845
0.00583845
0.02262668
0.02262668
0.02929002
0.02929002
0.00290798
0.00290798
0.02619948
0.02619948
0.00720653
0.00720653
0.02115435
0.02115435
0.02447340
0.02447340
0.00467192
0.00467192
0.03005021
0.03005021
0.00488332
0.00488332
0.02061162
0.02061162
0.02867787
0.02867787
0.00135560
0.00135560
0.00069589
0.00069589
0.03528556
0.03528556
0.00498873
0.00498873
0.02847885
0.02847885
0.01095866
0.01095866
0.03759718
0.03759718
0.01971209
0.01971209
0.02943018
0.02943018
0.03085823
0.03085823
0.03968558
0.03968558
0.03139656
0.03139656
0.01928852
0.01928852
0.02203237
0.02203237
0.03679040
0.03679040
0.02833381
0.02833381
0.01199238
0.01199238
0.00775349
0.00775349
0.04015280
0.04015280
0.00216234
0.00216234
0.00785421
0.00785421
0.01062515
0.01062515
0.02103990
0.02103990
0.02920076
0.02920076
0.03356743
0.03356743
0.02547677
0.02547677
0.01040961
0.01040961
0.01197970
0.01197970
0.00178641
0.00178641
0.01918694
0.01918694
0.05512159
0.05512159
0.02653212
0.02653212
0.00036656
0.00036656
0.01069728
0.01069728
0.00510117
0.00510117
0.00739338
0.00739338
0.00855669
0.00855669
0.00237711
0.00237711
0.02153201
0.02153201
0.04528510
0.04528510
0.03642861
0.03642861
0.03328979
0.03328979
0.02576758
0.02576758
0.02396591
0.02396591
0.03686803
0.03686803
0.03313657
0.03313657
0.08036284
0.08036284
0.08551642
0.08551642
0.07813936
0.07813936
0.08031922
0.08031922
0.08834549
0.08834549
0.06538565
0.06538565
0.05484406
0.05484406
0.09414784
0.09414784
0.04763978
0.04763978
0.04361895
0.04361895
0.04285600
0.04285600
0.04947395
0.04947395
0.09596764
0.09596764
0.06090557
0.06090557
0.07228806
0.07228806
0.07355057
0.07355057
0.09607805
0.09607805
0.05522732
0.05522732
0.07878387
0.07878387
0.05965932
0.05965932
0.09156034
0.09156034
0.05053681
0.05053681
0.08275087
0.08275087
0.05530760
0.05530760
0.09618351
0.09618351
0.05235840
0.05235840
0.04886248
0.04886248
0.07937662
0.07937662
0.06759396
0.06759396
0.07984291
0.07984291
0.06824045
0.06824045
0.09467415
0.09467415
0.05904525
0.05904525
0.09910670
0.09910670
0.08003057
0.08003057
0.08784450
0.08784450
0.09219389
0.09219389
0.05404571
0.05404571
0.05970574
0.05970574
0.09853143
0.09853143
0.09078956
0.09078956
0.05337902
0.05337902
0.05997457
0.05997457
0.09521645
0.09521645
0.08400014
0.08400014
0.05027968
0.05027968
0.06310400
0.06310400
0.09754000
0.09754000
0.08674794
0.08674794
0.05463526
0.05463526
0.07304014
0.07304014
0.06434748
0.06434748
0.09336668
0.09336668
0.06092096
0.06092096
0.06618334
0.06618334
0.07820792
0.07820792
0.05445348
0.05445348
0.06479953
0.06479953
0.09539662
0.09539662
0.03157887
0.03157887
0.09472604
0.09472604
0.04780818
0.04780818
0.07744286
0.07744286
0.06992612
0.06992612
0.06399120
0.06399120
0.08925412
0.08925412
0.04678533
0.04678533
0.05939871
0.05939871
0.07540476
0.07540476
0.09685865
0.09685865
0.08658371
0.08658371
0.07087715
0.07087715
0.06078238
0.06078238
0.05628638
0.05628638
0.06102216
0.06102216
0.06686643
0.06686643
0.07346256
0.07346256
0.08567229
0.08567229
0.09258261
0.09258261
0.09484257
0.09484257
0.09612957
0.09612957

