# vtk DataFile Version 3.0
Visualize mesh data
ASCII

DATASET UNSTRUCTURED_GRID
POINTS 32 double
-0.22040179 0.11973242 -0.00930035
-0.22149465 0.12046133 -0.01360717
-0.10078141 0.22134754 -0.01223123
-0.10101471 0.22189889 -0.01484176
0.07860103 0.19892807 -0.00961143
0.07956976 0.20170667 -0.02140205
-0.03179954 0.05925103 -0.00090617
-0.03132309 0.06187866 -0.04335607
0.14515515 0.03162994 -0.00285935
0.15068423 0.03430841 -0.03453476
-0.14564987 -0.05427140 -0.00331092
-0.15294779 -0.05550129 -0.03451178
0.04338917 -0.11220467 -0.00303698
0.04515051 -0.11682989 -0.03724318
-0.08863508 -0.21080065 -0.01091564
-0.08941298 -0.21216889 -0.01928619
0.08546782 0.12992771 -0.03783302
0.08604650 0.13142138 -0.00652809
-0.23921792 0.06218944 -0.01897226
-0.23970917 0.06229969 -0.00963814
-0.13197690 -0.06777524 -0.03893308
-0.13262074 -0.06971058 -0.00392481
-0.07940124 0.10658011 -0.04112870
-0.08032432 0.10870693 -0.00506478
0.17926049 -0.01471050 -0.03369168
0.18080298 -0.01526010 -0.00574950
-0.00579881 -0.21505108 -0.02658558
-0.00565811 -0.21638504 -0.01224964
0.02039889 -0.03910972 -0.04902669
0.02085598 -0.03949091 -0.00222466
0.14165316 -0.17307569 -0.02466876
0.14204340 -0.17422881 -0.01121397

CELLS 16 48
2 0 1
2 2 3
2 4 5
2 6 7
2 8 9
2 10 11
2 12 13
2 14 15
2 16 17
2 18 19
2 20 21
2 22 23
2 24 25
2 26 27
2 28 29
2 30 31

CELL_TYPES 16
3
3
3
3
3
3
3
3
3
3
3
3
3
3
3
3


POINT_DATA 32
VECTORS normals double
-0.05535938 0.05170072 0.99712706
-0.22170182 0.12054884 -0.96363230
-0.02545412 0.10149252 0.99451061
-0.10066077 0.22020589 -0.96526249
0.02000710 0.08962348 0.99577475
0.08031911 0.19977456 -0.97169501
-0.00796948 0.02753350 0.99958911
-0.02938416 0.06064514 -0.99349888
0.03675749 0.01446438 0.99921953
0.14727344 0.03588074 -0.98534260
-0.03692499 -0.02490266 0.99900771
-0.15209338 -0.05593734 -0.98459335
0.01066492 -0.04789178 0.99879559
0.04797546 -0.11488671 -0.98742722
-0.02236982 -0.09662396 0.99506955
-0.09040381 -0.21312071 -0.96889190
0.08700763 0.12729128 -0.98804180
0.02185866 0.05937315 0.99727449
-0.23959326 0.06302183 -0.96882574
-0.06072891 0.02683388 0.99718564
-0.13099824 -0.06842819 -0.98901822
-0.03362833 -0.03182005 0.99867419
-0.07855752 0.10479678 -0.99138608
-0.02019897 0.04952009 0.99794396
0.17339258 -0.01097111 -0.98479168
0.04574234 -0.00638244 0.99829185
-0.00606336 -0.21212973 -0.97722270
-0.00152030 -0.09823247 0.99453061
0.02443230 -0.03893164 -0.99894314
0.00512985 -0.01595629 0.99911840
0.14509670 -0.16865800 -0.97493663
0.03567235 -0.07760782 0.99558280

