# vtk DataFile Version 3.0
Visualize mesh data
ASCII

DATASET UNSTRUCTURED_GRID
POINTS 617 double
-0.11795580 -0.09771498 -0.08819947
-0.15745522 -0.12819166 -0.07917044
-0.11163767 -0.15413713 -0.08172235
-0.07571985 -0.11932887 -0.08996317
-0.05410481 -0.16237579 -0.08524451
-0.02659194 -0.11454015 -0.09306267
-0.00340831 -0.16232641 -0.08673123
0.02493402 -0.11485425 -0.09306935
0.04966747 -0.16036369 -0.08580760
0.07915434 -0.11287158 -0.09045169
0.09960699 -0.16866422 -0.08062778
0.12645124 -0.13290428 -0.08302925
-0.12410147 -0.05187140 -0.09091280
-0.17087087 -0.07953703 -0.08207790
-0.06607884 -0.07123305 -0.09526852
-0.01027706 -0.06866707 -0.09758673
0.04326823 -0.06791855 -0.09675220
0.09520547 -0.06151810 -0.09355495
0.17790188 -0.12711956 -0.07580302
0.13577023 -0.08910631 -0.08672515
0.18889706 -0.07779508 -0.07891051
-0.12474106 0.00437273 -0.09217969
-0.16823354 -0.02487493 -0.08543328
-0.08478909 -0.02502015 -0.09608475
-0.03757132 -0.02257546 -0.09903893
0.01149550 -0.02051076 -0.09972355
0.06131442 -0.01828485 -0.09795097
0.11272201 -0.01212410 -0.09355257
0.15125115 -0.04209463 -0.08759866
-0.11417231 0.05644439 -0.09185622
-0.16487876 0.03156579 -0.08580861
-0.07357071 0.02443559 -0.09699062
-0.02484041 0.02754103 -0.09931198
0.02569426 0.02806844 -0.09927574
0.07620462 0.03054781 -0.09662417
0.12729733 0.03490276 -0.09125034
0.16805501 0.00684364 -0.08575383
-0.11284414 0.10682853 -0.08785317
-0.16032349 0.08310476 -0.08355985
-0.06160335 0.07531817 -0.09525481
-0.00783973 0.07488108 -0.09716163
0.04346856 0.07653306 -0.09611908
0.09291658 0.07920574 -0.09251848
0.14099066 0.08112304 -0.08668164
0.18082307 0.05587109 -0.08192739
-0.15448941 0.13474511 -0.07876287
-0.07294424 0.12647243 -0.08928452
-0.10618871 0.16590557 -0.08040771
-0.02623970 0.12199156 -0.09218422
0.02325717 0.12331120 -0.09209547
0.07344481 0.12528212 -0.08939896
0.17615059 0.11404884 -0.07773403
0.12417344 0.12700118 -0.08409939
-0.05156619 0.17182314 -0.08377728
-0.00016256 0.17009144 -0.08542827
0.05184752 0.17092796 -0.08391843
0.10468194 0.17124815 -0.07965086
-0.05356444 -0.34677693 -0.03641692
-0.10203924 -0.35820109 -0.02805171
-0.06740406 -0.39598915 -0.01577798
-0.00601709 -0.33642909 -0.04168955
-0.01941777 -0.38692835 -0.02190534
0.04727660 -0.33554503 -0.04083709
0.02397773 -0.37700501 -0.02590082
0.06983780 -0.38369131 -0.02081684
-0.17430460 -0.28770879 -0.04172263
-0.22479282 -0.30077806 -0.02682290
-0.18758763 -0.33643198 -0.02283499
-0.12238242 -0.27562380 -0.05344329
-0.13723035 -0.32353741 -0.03621117
-0.08573857 -0.30715016 -0.04779092
-0.03710362 -0.29540423 -0.05465159
0.01758229 -0.29353160 -0.05578766
0.09753682 -0.34068304 -0.03510514
0.07229855 -0.29419094 -0.05300817
0.12465582 -0.29766485 -0.04649702
0.14849578 -0.34345797 -0.02735410
0.17608462 -0.30009976 -0.03751496
0.19834721 -0.34815797 -0.01621196
0.22404175 -0.30583626 -0.02534828
-0.19993657 -0.20277373 -0.05859700
-0.26247281 -0.26331088 -0.02831862
-0.21396045 -0.25220433 -0.04372344
-0.16464806 -0.23877226 -0.05701557
-0.11716986 -0.22966912 -0.06619010
-0.06907799 -0.25368607 -0.06481687
-0.01170805 -0.25173879 -0.06772438
0.04393958 -0.25144315 -0.06687418
0.09990553 -0.25274634 -0.06236074
0.15489373 -0.25498092 -0.05445937
0.20925233 -0.25693503 -0.04350296
0.25782892 -0.26461211 -0.02924953
0.24544021 -0.21380004 -0.04554144
0.29709852 -0.23992434 -0.02421252
-0.28552708 -0.17510588 -0.04223785
-0.33406353 -0.18920425 -0.02336524
-0.29814374 -0.22582354 -0.02742336
-0.24938072 -0.21278532 -0.04473892
-0.19094951 -0.15521851 -0.06924996
-0.14760999 -0.18698537 -0.07120941
-0.08707722 -0.19903520 -0.07611606
-0.03539160 -0.20986034 -0.07709060
0.01911004 -0.20683733 -0.07818869
0.07268465 -0.20963532 -0.07507435
0.12941042 -0.21204814 -0.06865296
0.18793400 -0.21467172 -0.05843458
0.21115644 -0.17106093 -0.06236748
0.29541406 -0.19173858 -0.03593103
-0.26886013 -0.12330867 -0.05525348
-0.32002166 -0.13883100 -0.03718308
-0.23751947 -0.16126119 -0.05790362
-0.21547735 -0.10852288 -0.07045982
0.15770705 -0.17352600 -0.07211999
0.22627535 -0.11950065 -0.06670526
0.25893149 -0.15955383 -0.05262641
0.34314254 -0.16702627 -0.02431349
0.30557159 -0.13829768 -0.04207203
0.35025311 -0.11456328 -0.02962253
-0.34763822 -0.05488157 -0.03602121
-0.39578757 -0.06727126 -0.01587490
-0.35796183 -0.10397940 -0.02792869
-0.30822605 -0.08939748 -0.04710338
-0.25757024 -0.07367380 -0.06344680
-0.21311548 -0.05146363 -0.07567070
0.23818661 -0.06860544 -0.06879327
0.27441773 -0.10425967 -0.05594186
0.28913677 -0.05269224 -0.05583653
0.32348505 -0.08250561 -0.04262946
-0.33714426 -0.00637258 -0.04143140
-0.38680160 -0.01859403 -0.02197549
-0.29790056 -0.03959559 -0.05377535
-0.25303409 -0.01810203 -0.06728802
-0.20923410 0.00559397 -0.07784960
0.20381214 -0.02614895 -0.07866076
0.25182739 -0.01957293 -0.06757424
0.30788887 -0.00848628 -0.05138448
0.34662488 -0.03906916 -0.03718982
-0.33376759 0.04649897 -0.04150788
-0.37698728 0.02510488 -0.02587817
-0.29295790 0.01476798 -0.05601130
-0.24985179 0.03831500 -0.06752572
-0.20696069 0.06202949 -0.07638088
0.22050656 0.02801512 -0.07498310
0.26941073 0.02262771 -0.06275949
0.31094447 0.04565619 -0.04933087
0.35215643 0.01489328 -0.03582267
-0.38064289 0.07121394 -0.02197591
-0.29062921 0.06959196 -0.05430166
-0.33552244 0.09704881 -0.03701988
-0.24738613 0.09495337 -0.06425307
-0.20236377 0.11649707 -0.07235662
0.21772081 0.08807159 -0.07202933
0.26065287 0.06913476 -0.06295404
0.30217877 0.09658618 -0.04834542
0.34999570 0.07101224 -0.03405581
-0.29075789 0.12240602 -0.04893444
-0.33369398 0.14861809 -0.03089259
-0.24619295 0.14971568 -0.05758772
-0.20239009 0.16809006 -0.06477145
-0.15436766 0.18062122 -0.07136325
0.16000549 0.16457742 -0.07329980
0.21008211 0.14733739 -0.06651810
0.25509951 0.12271439 -0.05909613
0.29599854 0.14834481 -0.04359881
0.34336710 0.12316401 -0.03109059
-0.28709742 0.17516193 -0.04175017
-0.33456936 0.19842520 -0.02124414
-0.23972322 0.20706110 -0.04850332
-0.18654983 0.21754703 -0.05805663
-0.12823522 0.21863167 -0.06734476
-0.07807658 0.21426447 -0.07365022
-0.02395384 0.21668082 -0.07594857
0.02881334 0.21609378 -0.07594738
0.08257483 0.21530093 -0.07305030
0.13870732 0.20969605 -0.06787798
0.19571923 0.20110476 -0.05981812
0.24732091 0.17659536 -0.05270479
0.33938050 0.17398898 -0.02441803
0.29269731 0.19753106 -0.03557990
-0.29004160 0.22260413 -0.03076485
-0.20849109 0.25807345 -0.04336081
-0.25436923 0.25927609 -0.03170393
-0.15517808 0.26009926 -0.05303100
-0.10062797 0.26191676 -0.05982999
-0.04882487 0.26037407 -0.06427250
0.00449513 0.26135322 -0.06523279
0.05728585 0.26028430 -0.06383113
0.11067613 0.25631416 -0.06023637
0.16213264 0.25016728 -0.05453095
0.20795496 0.24968383 -0.04573396
0.28653705 0.24715850 -0.02563987
0.24597307 0.22558771 -0.04265980
-0.23047823 0.30534774 -0.02392778
-0.17990066 0.30353031 -0.03568432
-0.12703489 0.30381039 -0.04422525
-0.15110716 0.34756121 -0.02540145
-0.07204890 0.30560172 -0.04942957
-0.01928735 0.30525899 -0.05207405
0.03376273 0.30532366 -0.05164990
0.08726566 0.30226815 -0.04922006
0.13984828 0.29823846 -0.04419080
0.24196678 0.28390175 -0.02782104
0.19013596 0.29596999 -0.03608230
-0.09855109 0.34596872 -0.03305594
-0.04228593 0.34900236 -0.03616730
0.01020524 0.34945679 -0.03689692
0.06411365 0.34689626 -0.03570960
0.11721269 0.34402016 -0.03161756
0.16892648 0.34151211 -0.02457199
-0.04133811 -0.47670007 0.02190652
-0.09170785 -0.48852915 0.03228524
-0.05492707 -0.52008349 0.04765257
0.00717342 -0.46661970 0.01557102
-0.00691445 -0.51414973 0.04232743
0.05754495 -0.46485761 0.01648655
0.03592855 -0.50566524 0.03801867
0.10627985 -0.47188482 0.02476897
0.07921336 -0.51233619 0.04487612
0.12727895 -0.51538575 0.05254641
-0.16451973 -0.42037386 0.00768890
-0.21251155 -0.43262139 0.02382787
-0.17560831 -0.46746841 0.03360804
-0.11568310 -0.40756300 -0.00581995
-0.12712358 -0.45445889 0.01835003
-0.07701004 -0.44255939 0.00657364
-0.02551245 -0.43090290 -0.00203756
0.02865941 -0.42258593 -0.00586960
0.08420746 -0.42672342 -0.00045333
0.15604468 -0.47497791 0.03394803
0.13572830 -0.43137807 0.00809708
0.18668835 -0.43386489 0.01857575
0.20581520 -0.47518775 0.04452547
0.23883054 -0.43446296 0.03155198
-0.28530464 -0.36063680 0.01200094
-0.33263400 -0.37190190 0.03337231
-0.29613957 -0.40805131 0.03640547
-0.23703775 -0.34907621 -0.00661949
-0.24884281 -0.39701486 0.01656553
-0.20059891 -0.38482931 -0.00092534
-0.15150449 -0.37228760 -0.01566825
0.11950220 -0.38628426 -0.01460574
0.16874588 -0.38990068 -0.00526366
0.21898070 -0.39362949 0.00719359
0.27209499 -0.39277491 0.02153989
0.24845961 -0.35382330 -0.00170777
0.30324453 -0.34800246 0.01290526
0.31863350 -0.39826620 0.03985074
0.34917629 -0.36246952 0.03588673
-0.35838851 -0.28755811 0.01181760
-0.40497324 -0.29940829 0.03608372
-0.36891037 -0.33572775 0.03328665
-0.32188615 -0.32414106 0.01043727
-0.27381182 -0.31241477 -0.00962857
0.27000979 -0.31346634 -0.01040295
0.30653197 -0.29036772 -0.00649033
0.34653881 -0.31455252 0.01627632
-0.34651136 -0.23884819 -0.00712810
-0.39443162 -0.25093895 0.01600149
-0.31062841 -0.27558184 -0.00970582
0.34569094 -0.26310831 -0.00070629
0.39045209 -0.28227890 0.02372047
0.38892344 -0.23585670 0.00943270
0.43715042 -0.25571731 0.03773078
-0.41769269 -0.16633758 0.00676730
-0.46566045 -0.17620169 0.03275534
-0.43015522 -0.21394183 0.02296218
-0.38230965 -0.20258380 -0.00155375
0.34187675 -0.21576795 -0.01463900
0.38607347 -0.18757556 -0.00319580
0.43069923 -0.21236132 0.02284505
0.42536512 -0.16034906 0.00929650
0.46482286 -0.18512800 0.03416672
-0.40583366 -0.11713496 -0.00640962
-0.45202476 -0.12917311 0.01739707
-0.36953476 -0.15332302 -0.01648030
0.38652259 -0.13396858 -0.01249806
0.42418030 -0.10762053 0.00083991
0.46634042 -0.13588910 0.02589431
-0.47207355 -0.04188650 0.01943650
-0.51344776 -0.06127453 0.04406961
-0.48577082 -0.09476224 0.03106567
-0.44055280 -0.07808849 0.00567600
0.38127732 -0.07430336 -0.02146981
[...]
POINT_DATA 617

SCALARS deformation double
LOOKUP_TABLE default 
-0.00008051
-0.00007816
-0.00007675
-0.00008693
-0.00007622
-0.00008316
-0.00007972
-0.00008368
-0.00007714
-0.00008395
-0.00007824
-0.00007752
-0.00008300
-0.00007655
-0.00008419
-0.00008754
-0.00008968
-0.00008420
-0.00007237
-0.00007837
-0.00007746
-0.00008513
-0.00007775
-0.00008467
-0.00008767
-0.00009114
-0.00008869
-0.00008423
-0.00007719
-0.00008502
-0.00007571
-0.00008703
-0.00008944
-0.00008799
-0.00008505
-0.00008126
-0.00007960
-0.00007930
-0.00007808
-0.00008554
-0.00008528
-0.00008839
-0.00008292
-0.00007888
-0.00007726
-0.00007753
-0.00008565
-0.00007741
-0.00008232
-0.00008251
-0.00008537
-0.00007317
-0.00007668
-0.00007622
-0.00007677
-0.00007617
-0.00007782
-0.00003662
-0.00002640
-0.00001535
-0.00004105
-0.00002079
-0.00004215
-0.00002514
-0.00002110
-0.00004275
-0.00002642
-0.00002337
-0.00005049
-0.00003518
-0.00004848
-0.00005289
-0.00005518
-0.00003509
-0.00005131
-0.00004563
-0.00002591
-0.00003869
-0.00001286
-0.00002380
-0.00005766
-0.00002649
-0.00004524
-0.00005479
-0.00006530
-0.00006600
-0.00006632
-0.00006380
-0.00006037
-0.00005484
-0.00004379
-0.00002713
-0.00004490
-0.00002356
-0.00004177
-0.00002366
-0.00002538
-0.00004493
-0.00006443
-0.00006605
-0.00007208
-0.00007544
-0.00007412
-0.00006926
-0.00006720
-0.00005608
-0.00005971
-0.00003577
-0.00005368
-0.00003801
-0.00005597
-0.00006667
-0.00006675
-0.00006588
-0.00005174
-0.00002312
-0.00004349
-0.00002953
-0.00003597
-0.00001328
-0.00002640
-0.00004582
-0.00006448
-0.00007183
-0.00006711
-0.00005367
-0.00005463
-0.00004287
-0.00004302
-0.00002168
-0.00005100
-0.00006572
-0.00007573
-0.00007473
-0.00006450
-0.00005189
-0.00003654
-0.00004164
-0.00002597
-0.00005534
-0.00006497
-0.00007327
-0.00006982
-0.00006153
-0.00004842
-0.00003654
-0.00002208
-0.00005340
-0.00003622
-0.00006214
-0.00006842
-0.00006821
-0.00006416
-0.00004845
-0.00003426
-0.00004940
-0.00003108
-0.00005680
-0.00006160
-0.00006612
-0.00006934
-0.00006388
-0.00005754
-0.00004442
-0.00003074
-0.00004261
-0.00002107
-0.00004797
-0.00005573
-0.00006648
-0.00006836
-0.00007287
-0.00007299
-0.00006674
-0.00006475
-0.00005881
-0.00005059
-0.00002322
-0.00003521
-0.00002949
-0.00004400
-0.00002972
-0.00005389
-0.00005769
-0.00006294
-0.00006705
-0.00006404
-0.00005869
-0.00005309
-0.00004801
-0.00002569
-0.00004274
-0.00002277
-0.00003667
-0.00004406
-0.00002414
-0.00004804
-0.00005216
-0.00005112
-0.00004923
-0.00004354
-0.00002777
-0.00003604
-0.00003210
-0.00003663
-0.00003632
-0.00003497
-0.00003168
-0.00002314
-0.00000214
-0.00000535
-0.00000733
-0.00000140
-0.00000691
-0.00000023
-0.00000634
-0.00000376
-0.00000708
-0.00000781
0.00000590
-0.00000374
-0.00000541
-0.00000084
-0.00000249
0.00000413
0.00000505
0.00000055
0.00000391
-0.00000567
0.00000342
-0.00000189
-0.00000724
-0.00000533
0.00000255
-0.00000514
-0.00000572
-0.00000330
-0.00000109
0.00000171
-0.00001096
-0.00001380
0.00000043
0.00000485
-0.00000396
0.00000093
0.00000016
-0.00000680
-0.00000571
-0.00000090
-0.00000617
-0.00000576
0.00000178
-0.00000587
-0.00000624
0.00000070
0.00000097
0.00000025
0.00000044
-0.00000400
0.00000085
-0.00000418
0.00000162
-0.00000602
0.00000303
-0.00000537
-0.00000380
0.00000249
-0.00001236
0.00000456
-0.00000139
0.00000170
-0.00000548
0.00000019
0.00000018
-0.00001582
-0.00001023
0.00000202
-0.00000436
-0.00000334
-0.00000743
-0.00000499
0.00000493
-0.00002072
0.00000600
-0.00000122
-0.00000039
-0.00000685
0.00000223
-0.00001832
0.00000705
-0.00000262
-0.00000077
-0.00000646
-0.00000221
-0.00001871
0.00000295
-0.00000307
-0.00000368
-0.00000703
0.00000195
-0.00001511
-0.00001329
0.00000502
-0.00000350
-0.00000770
0.00000518
-0.00000467
-0.00000422
-0.00000810
0.00000602
-0.00000359
0.00000150
-0.00000649
0.00000170
-0.00001072
0.00000108
0.00000048
-0.00000473
-0.00000451
-0.00000315
0.00000028
-0.00001023
-0.00000876
-0.00000003
0.00000513
-0.00000661
-0.00000372
0.00000393
-0.00000467
-0.00000593
0.00000076
-0.00001085
-0.00001508
0.00000329
0.00000223
-0.00000567
-0.00000368
-0.00000545
-0.00000046
0.00000506
-0.00000403
0.00000001
-0.00001042
-0.00001848
-0.00001807
-0.00001831
-0.00001471
-0.00000559
0.00000109
0.00000164
-0.00000569
-0.00000063
-0.00000582
0.00000139
-0.00000374
0.00000695
0.00000140
0.00000672
0.00000650
0.00000311
0.00000200
0.00000238
-0.00000581
-0.00000407
-0.00000620
-0.00000419
-0.00000328
-0.00000334
-0.00000241
-0.00000449
-0.00000502
-0.00000640
-0.00000859
-0.00000874
-0.00000876
-0.00000819
-0.00000874
-0.00000852
-0.00000874
-0.00000840
-0.00000873
-0.00000832
-0.00000874
-0.00000850
-0.00000876
-0.00000866
-0.00000876
-0.00000876
-0.00000848
-0.00000873
-0.00000876
-0.00000774
-0.00000865
-0.00000827
-0.00000738
-0.00000828
-0.00000879
-0.00000858
-0.00000822
-0.00000878
-0.00000868
-0.00000804
-0.00000868
-0.00000869
-0.00000824
-0.00000697
-0.00000776
-0.00000879
-0.00000852
-0.00000834
-0.00000877
-0.00000870
-0.00000817
-0.00000873
-0.00000870
-0.00000805
-0.00000807
-0.00000875
-0.00000850
-0.00000873
-0.00000850
-0.00000879
-0.00000877
-0.00000829
-0.00000659
-0.00000771
-0.00000854
-0.00000770
-0.00000865
-0.00000678
-0.00000820
-0.00000870
-0.00000759
-0.00000862
-0.00000852
-0.00000878
-0.00000875
-0.00000817
-0.00000776
-0.00000852
-0.00000831
-0.00000878
-0.00000701
-0.00000721
-0.00000848
-0.00000839
-0.00000870
-0.00000848
-0.00000879
-0.00000698
-0.00000840
-0.00000871
-0.00000842
-0.00000881
-0.00000724
-0.00000846
-0.00000873
-0.00000844
-0.00000882
-0.00000742
-0.00000852
-0.00000875
-0.00000857
-0.00000883
-0.00000754
-0.00000857
-0.00000877
-0.00000868
-0.00000884
-0.00000806
-0.00000772
-0.00000877
-0.00000864
-0.00000883
-0.00000846
-0.00000875
-0.00000808
-0.00000873
-0.00000795
-0.00000880
-0.00000686
-0.00000773
-0.00000844
-0.00000878
-0.00000871
-0.00000849
-0.00000880
-0.00000760
-0.00000830
-0.00000867
-0.00000878
-0.00000804
-0.00000876
-0.00000819
-0.00000690
-0.00000712
-0.00000820
-0.00000880
-0.00000862
-0.00000870
-0.00000856
-0.00000879
-0.00000795
-0.00000843
-0.00000786
-0.00000827
-0.00000875
-0.00000854
-0.00000884
-0.00000878
-0.00000774
-0.00000884
-0.00000837
-0.00000798
-0.00000758
-0.00000739
-0.00000734
-0.00000748
-0.00000787
-0.00000805
-0.00000844
-0.00000875
-0.00000871
-0.00000873
-0.00000882
-0.00000865
-0.00000876
-0.00000857
-0.00000852
-0.00000856
-0.00000863
-0.00000871
-0.00000884
-0.00000873
-0.00000880
-0.00000883
-0.00000883
-0.00000882
-0.00000882
-0.00000883
-0.00000870
-0.00000869
-0.00000872
-0.00000871
-0.00000871
-0.00000870
-0.00000866
-0.00000871
-0.00000863
-0.00000875
-0.00000869
-0.00000872
-0.00000878
-0.00000874
-0.00000874
-0.00000874
-0.00000867
-0.00000877
-0.00000876
-0.00000874
-0.00000876
-0.00000866
-0.00000873
-0.00000867
-0.00000869
-0.00000868
-0.00000871
-0.00000878
-0.00000870
-0.00000873
-0.00000870
-0.00000862
-0.00000865
-0.00000877
-0.00000868
-0.00000879
-0.00000869
-0.00000880
-0.00000870
-0.00000880
-0.00000870
-0.00000878
-0.00000868
-0.00000874
-0.00000876
-0.00000865
-0.00000879
-0.00000875
-0.00000873
-0.00000870
-0.00000878
-0.00000868
-0.00000879
-0.00000876
-0.00000875
-0.00000880
-0.00000878
-0.00000875
-0.00000878
-0.00000873
-0.00000880
-0.00000878
-0.00000874
-0.00000877
-0.00000883
-0.00000882
-0.00000883
-0.00000882
-0.00000874
-0.00000878
-0.00000871
-0.00000874
-0.00000876
-0.00000877
-0.00000877
-0.00000875
-0.00000872


SCALARS normal_stress double
LOOKUP_TABLE default 
-0.11729081
-0.30496009
-0.16659563
-0.36497256
-0.05745450
-0.13740812
-0.18699919
-0.15050625
-0.09810554
-0.20915546
-0.26930039
-0.16761558
-0.19634111
-0.16029105
-0.12370600
-0.17701898
-0.24359661
-0.15775762
-0.17612063
-0.12622058
-0.26815349
-0.24133764
-0.12924079
-0.12448967
-0.15563033
-0.23167907
-0.19621596
-0.19381532
-0.06223008
-0.23538504
-0.03644039
-0.16840546
-0.21495851
-0.14716276
-0.13127923
-0.13098451
-0.20536067
-0.07070970
-0.18395454
-0.16053865
-0.12361974
-0.25179342
-0.13849876
-0.16095906
-0.21276037
-0.28663201
-0.32132589
-0.21914459
-0.14375315
-0.14207905
-0.28497098
-0.17908184
-0.10299736
-0.11483023
-0.12647866
-0.10822180
-0.28227385
-0.09705622
-0.04152856
-0.05685000
-0.08289338
-0.06414322
-0.14260423
-0.05986209
-0.08535333
-0.14280800
-0.05653410
-0.09993542
-0.04247498
-0.07221637
-0.16155701
-0.08041489
-0.15124702
-0.07919480
-0.10005412
-0.09616760
-0.04436360
-0.13770214
0.03492532
-0.04188430
-0.16913069
-0.04175220
-0.15833649
-0.10095180
-0.21339820
-0.22688557
-0.16186413
-0.14058100
-0.14777841
-0.16250377
-0.12861258
-0.04148400
-0.11392588
-0.08785512
-0.09271364
-0.10535028
-0.05325025
-0.12740762
-0.07937978
-0.09417963
-0.15289261
-0.23261751
-0.18809764
-0.09932476
-0.19737536
-0.11162847
-0.13070281
-0.08130455
-0.11088955
-0.12072804
-0.13472780
-0.12496517
-0.08699868
-0.18948123
-0.12184887
-0.05439782
-0.15900059
-0.05848453
-0.09819617
0.00669749
-0.04506181
-0.08910307
-0.25102792
-0.14924073
-0.16822850
-0.07829714
-0.12965549
-0.11981019
-0.15427391
-0.06537248
-0.04996616
-0.16252168
-0.25319110
-0.19233665
-0.12878917
-0.16446976
-0.06043242
-0.09582448
-0.06280396
-0.14422171
-0.12985720
-0.20556262
-0.11053236
-0.15526913
-0.08116572
-0.10398355
-0.08477106
-0.12976856
-0.05851773
-0.14099255
-0.12097355
-0.12902143
-0.24697668
-0.11679517
-0.09095752
-0.14320353
-0.09041648
-0.15027567
-0.12410016
-0.05494256
-0.14460823
-0.15739643
-0.12527858
-0.14601829
-0.06786290
-0.12323734
-0.07652724
-0.12750138
-0.10521840
-0.21583319
-0.09979792
-0.19318328
-0.19671625
-0.05733116
-0.13877104
-0.15589160
-0.08494172
-0.05055798
-0.09006256
-0.05973483
-0.13493149
-0.03870716
-0.16575200
-0.11648624
-0.16033601
-0.23928516
-0.20074765
-0.15281636
-0.10678542
-0.19372278
-0.09052420
-0.09859817
-0.04904449
-0.12051231
-0.11164587
-0.04892732
-0.09465579
-0.13241672
-0.10404092
-0.12872701
-0.09725245
-0.07782672
-0.08019849
-0.05936094
-0.10807103
-0.07223092
-0.06871658
-0.10367570
-0.04715238
0.03780092
0.00000000
0.00000000
0.04637660
0.00000000
0.10028421
0.00000000
0.00000000
0.00000000
0.00000000
0.32318194
0.00000000
0.00000000
0.23337296
0.01447733
0.27492539
0.37990490
0.27021291
0.33683036
0.00000000
0.24832682
0.03786646
0.00000000
0.00000000
0.21349115
0.00000000
0.00000000
0.19213580
0.08733869
0.26417199
0.08121708
-0.02034556
0.27505196
0.30010539
0.00000000
0.25201754
0.13013759
0.00000000
0.00000000
0.08475472
0.00000000
0.00000000
0.19254548
0.13479190
0.11524435
0.29818177
0.14508852
0.28943794
0.13162793
0.19151036
0.23711883
0.00000000
0.17165645
0.00000000
0.23925452
0.00000000
0.00000000
0.30041443
0.02991114
0.38993608
0.06507368
0.16968314
0.00000000
0.27925852
0.09577936
-0.03568762
0.05170150
0.24565231
0.00000000
0.00000000
0.00000000
0.00000000
0.29808914
-0.07026280
0.39738893
0.07073745
0.11712756
0.00000000
0.31374295
-0.05680019
0.39066271
0.00000000
0.10510410
0.00000000
0.21276746
-0.05505843
0.28652046
0.01864459
0.00000000
0.00000000
0.29651066
-0.00271776
0.02758547
0.33563597
0.00626675
0.00000000
0.31912598
0.00000000
0.19826205
0.08372145
0.33709830
0.00000000
0.15433227
0.00000000
0.24441782
0.09280729
0.26398362
0.13491587
0.00000000
0.00000000
0.19968345
0.12339066
0.08640515
0.08197082
0.23257466
0.30541496
0.00000000
0.00000000
0.26899554
0.00000000
0.12658679
0.24183579
0.08615718
-0.02356660
0.36304445
0.19751426
0.00000000
0.00000000
0.00000000
0.11544931
0.30603998
0.00000000
0.24831355
0.04195636
-0.03588316
-0.05229541
-0.04921676
0.01151585
0.17269175
0.27636882
0.18076312
0.00000000
0.08388195
0.00000000
0.17313253
0.00000000
0.39320422
0.24838175
0.36021248
0.39616059
0.28386134
0.22063726
0.19971378
0.00000000
0.00000000
0.00000000
0.00000000
0.00000000
0.00000000
0.03209710
0.00000000
0.00000000
0.00000000
0.00000000
0.00000000
0.00000000
0.00000000
0.00000000
0.00000000
0.00000000
0.00000000
0.00000000
0.00000000
0.00000000
0.00000000
0.00000000
0.00000000
0.00000000
0.00000000
0.00000000
0.00000000
0.00000000
0.00000000
0.00000000
0.00000000
0.00000000
0.00000000
0.00000000
0.00000000
0.00000000
0.00000000
0.00000000
0.00000000
0.00000000
0.00000000
0.00000000
0.00000000
0.00000000
0.00000000
0.00000000
0.00000000
0.00000000
0.00000000
0.00000000
0.00000000
0.00000000
0.00000000
0.00000000
0.00000000
0.00000000
0.00000000
0.00000000
0.00000000
0.00000000
0.00000000
0.00000000
0.00000000
0.00000000
0.00000000
0.00000000
0.00000000
0.00000000
0.00000000
0.00000000
0.00000000
0.00000000
0.00000000
0.00000000
0.00000000
0.00000000
0.00000000
0.00000000
0.00000000
0.00000000
0.00000000
0.00000000
0.00000000
0.00000000
0.00000000
0.00000000
0.00000000
0.00000000
0.00000000
0.00000000
0.00000000
0.00000000
0.00000000
0.00000000
0.00000000
0.00000000
0.00000000
0.00000000
0.00000000
0.00000000
0.00000000
0.00000000
0.00000000
0.00000000
0.00000000
0.00000000
0.00000000
0.00000000
0.00000000
0.00000000
0.00000000
0.00000000
0.00000000
0.00000000
0.00000000
0.00000000
0.00000000
0.00000000
0.00000000
0.00000000
0.00000000
0.00000000
0.00000000
0.00000000
0.00000000
0.00000000
0.00000000
0.00000000
0.00000000
0.00000000
0.00000000
0.00000000
0.00000000
0.00000000
0.00000000
0.00000000
0.00000000
0.00000000
0.00000000
0.00000000
0.00000000
0.00000000
0.00000000
0.00000000
0.00000000
0.00000000
0.00000000
0.00000000
0.00000000
0.00000000
0.00000000
0.00000000
0.00000000
0.00000000
0.00000000
0.00000000
0.00000000
0.00000000
0.00000000
0.00000000
0.00000000
0.00000000
0.00000000
0.00000000
0.00000000
0.00000000
0.00000000
0.00000000
0.00000000
0.00000000
0.00000000
0.00000000
0.00000000
0.00000000
0.00000000
0.00000000
0.00000000
0.00000000
0.00000000
0.00000000
0.00000000
0.00000000
0.00000000
0.00000000
0.00000000
0.00000000
0.00000000
0.00000000
0.00000000
0.00000000
0.00000000
0.00000000
0.00000000
0.00000000
0.00000000
0.00000000
0.00000000
0.00000000
0.00000000
0.00000000
0.00000000
0.00000000
0.00000000
0.00000000
0.00000000
0.00000000
0.00000000
0.00000000
0.00000000
0.00000000
0.00000000
0.00000000
0.00000000
0.00000000
0.00000000
0.00000000
0.00000000
0.00000000
0.00000000
0.00000000
0.00000000
0.00000000
0.00000000
0.00000000
0.00000000
0.00000000
0.00000000
0.00000000
0.00000000
0.00000000
0.00000000
0.00000000
0.00000000
0.00000000
0.00000000
0.00000000
0.00000000
0.00000000
0.00000000
0.00000000
0.00000000
0.00000000
0.00000000
0.00000000
0.00000000
0.00000000
0.00000000
0.00000000
0.00000000
0.00000000
0.00000000
0.00000000
0.00000000
0.00000000


VECTORS normals double
-0.11806197 -0.09858044 -0.98810084
-0.15835580 -0.12897812 -0.97892190
-0.10997729 -0.15237016 -0.98218549
-0.07555726 -0.11971786 -0.98992865
-0.05504931 -0.16151500 -0.98533369
-0.02805144 -0.11519502 -0.99294674
-0.00351024 -0.16220899 -0.98675018
0.02399362 -0.11472502 -0.99310749
0.04943379 -0.16123962 -0.98567646
0.07987039 -0.11308300 -0.99037011
0.10051832 -0.16791657 -0.98066309
0.12809748 -0.13357089 -0.98272573
-0.12351720 -0.05113032 -0.99102432
-0.16937086 -0.07875430 -0.98240077
-0.06661926 -0.07128525 -0.99522876
-0.00966443 -0.06871893 -0.99758925
0.04343654 -0.06744396 -0.99677710
0.09594137 -0.05998361 -0.99357799
0.17687134 -0.12724465 -0.97597404
0.13601164 -0.09048505 -0.98656641
0.18905522 -0.07820798 -0.97884709
-0.12373169 0.00343564 -0.99230976
-0.16818289 -0.02445875 -0.98545233
-0.08502622 -0.02429714 -0.99608242
-0.03898976 -0.02273393 -0.99898096
0.01074840 -0.02054544 -0.99973114
0.06113846 -0.01789950 -0.99796879
0.11302596 -0.01070022 -0.99353442
0.15108116 -0.04261705 -0.98760228
-0.11496927 0.05588910 -0.99179558
-0.16459660 0.03142444 -0.98586027
-0.07396605 0.02262856 -0.99700400
-0.02453582 0.02740946 -0.99932313
0.02612823 0.02827569 -0.99925863
0.07658523 0.03084734 -0.99658574
0.12784638 0.03696588 -0.99110485
0.16753793 0.00651261 -0.98584412
-0.11252171 0.10695014 -0.98787678
-0.16008413 0.08365037 -0.98355259
-0.06164564 0.07569161 -0.99522389
-0.00619386 0.07509015 -0.99715751
0.04491072 0.07670294 -0.99604201
0.09474800 0.07923506 -0.99234300
0.14072155 0.08167110 -0.98667486
0.17862327 0.05705119 -0.98226213
-0.15516690 0.13546967 -0.97855567
-0.07250963 0.12733661 -0.98920561
-0.10668075 0.16566469 -0.98039504
-0.02711813 0.12268749 -0.99207479
0.02292304 0.12337093 -0.99209584
0.07335457 0.12517442 -0.98941926
0.17467183 0.11286141 -0.97813703
0.12447137 0.12542703 -0.98426365
-0.05138762 0.17106856 -0.98391812
-0.00004506 0.17024124 -0.98540241
0.05188317 0.17076648 -0.98394458
0.10486831 0.17039002 -0.97978053
-0.05332076 -0.34687429 -0.93639475
-0.10206412 -0.35853800 -0.92791886
-0.06674156 -0.39612245 -0.91576884
-0.00521214 -0.33753113 -0.94129994
-0.01831339 -0.38662458 -0.92205534
0.04688120 -0.33645204 -0.94053292
0.02394767 -0.37526997 -0.92660615
0.06878655 -0.38317003 -0.92111299
-0.17464632 -0.28788388 -0.94160583
-0.22491871 -0.30072432 -0.92680983
-0.18767867 -0.33657856 -0.92276302
-0.12322523 -0.27504500 -0.95350186
-0.13731391 -0.32355960 -0.93619126
-0.08630312 -0.30776042 -0.94754171
-0.03634616 -0.29649314 -0.95434311
0.01776034 -0.29388537 -0.95567565
0.09743917 -0.34060263 -0.93514462
0.07220827 -0.29475416 -0.95284099
0.12481457 -0.29781079 -0.94643017
0.14821118 -0.34373605 -0.92729660
0.17634706 -0.30061959 -0.93729909
0.19803412 -0.34819388 -0.91626607
0.22502870 -0.30620400 -0.92498713
-0.20036083 -0.20237413 -0.95859285
-0.26235868 -0.26341522 -0.92832125
-0.21359924 -0.25192856 -0.94387889
-0.16404844 -0.23908923 -0.95703942
-0.11750972 -0.23031147 -0.96599591
-0.06950406 -0.25350141 -0.96483481
-0.01123836 -0.25179842 -0.96771445
0.04427540 -0.25151516 -0.96684012
0.09989064 -0.25313639 -0.96225975
0.15483082 -0.25545481 -0.95434284
0.20877141 -0.25770492 -0.94339953
0.25834626 -0.26649282 -0.92856814
0.24552840 -0.21390080 -0.94549577
0.29757046 -0.23984373 -0.92408160
-0.28544368 -0.17519912 -0.94224581
-0.33411458 -0.18926560 -0.92333417
-0.29827568 -0.22591915 -0.92735762
-0.24954661 -0.21308752 -0.94462702
-0.19119448 -0.15627415 -0.96903202
-0.14737632 -0.18691293 -0.97125886
-0.08782164 -0.19952422 -0.97594951
-0.03514718 -0.20874239 -0.97733888
0.01931546 -0.20712571 -0.97812364
0.07295141 -0.20931179 -0.97512392
0.12940845 -0.21233235 -0.96859095
0.18704515 -0.21450730 -0.95864526
0.21052897 -0.17021246 -0.96265532
0.29667525 -0.19098788 -0.93568554
-0.26954911 -0.12380952 -0.95499449
-0.32035691 -0.13900901 -0.93704213
-0.23680060 -0.16189809 -0.95797416
-0.21512505 -0.10891960 -0.97049355
0.15692862 -0.17280538 -0.97237426
0.22590697 -0.11897758 -0.96685592
0.25921993 -0.15862159 -0.95270364
0.34373055 -0.16604222 -0.92427230
0.30630195 -0.13775973 -0.94191368
0.34935461 -0.11679600 -0.92968277
-0.34765996 -0.05464739 -0.93602682
-0.39578188 -0.06691978 -0.91590308
-0.35809182 -0.10382411 -0.92789590
-0.30839984 -0.08929612 -0.94705636
-0.25829865 -0.07307318 -0.96329752
-0.21297602 -0.05101843 -0.97572452
0.23859669 -0.06797373 -0.96873690
0.27416337 -0.10423638 -0.95601738
0.28987906 -0.05311961 -0.95558801
0.32421189 -0.08450024 -0.94220293
-0.33803203 -0.00574375 -0.94111708
-0.38652879 -0.01754019 -0.92211053
-0.29854912 -0.03906676 -0.95359436
-0.25330792 -0.01795872 -0.96721899
-0.20934294 0.00575544 -0.97782535
0.20364829 -0.02713086 -0.97866812
0.25293616 -0.01873028 -0.96730165
0.30636972 -0.00708556 -0.95188623
0.34490334 -0.03805295 -0.93786655
-0.33457590 0.04616858 -0.94123718
-0.37474964 0.02493168 -0.92679076
-0.29337687 0.01488647 -0.95588096
-0.25004081 0.03829531 -0.96747768
-0.20658424 0.06187667 -0.97647029
0.22092427 0.02804056 -0.97488779
0.26994705 0.02277202 -0.96260585
0.30969139 0.04522879 -0.94976081
0.35153479 0.01526809 -0.93605031
-0.38013659 0.07008691 -0.92227111
-0.29117989 0.06947469 -0.95414231
-0.33536481 0.09692622 -0.93708898
-0.24765489 0.09439840 -0.96423856
-0.20273959 0.11606672 -0.97232977
0.21810984 0.08864132 -0.97189033
0.26139324 0.06868431 -0.96278556
0.30250929 0.09669187 -0.94822930
0.34945499 0.07077358 -0.93427636
-0.29067135 0.12251533 -0.94894687