# vtk DataFile Version 3.0
Visualize mesh data
ASCII

DATASET UNSTRUCTURED_GRID
POINTS 480 double
-0.49576999 0.56637479 0.29164468
-0.42023829 0.45821012 0.16677379
-0.33687016 0.60192707 0.22598183
-0.41810086 0.69242794 0.36200750
-0.25103555 0.72481563 0.30842113
-0.33023975 0.79818932 0.44617913
-0.15596544 0.82784087 0.41115470
-0.36422485 0.87131901 0.62114825
-0.23150812 0.88256507 0.54075326
-0.20921462 0.94315025 0.69174272
-0.63293444 0.53195687 0.38749141
-0.57904640 0.42426308 0.25379165
-0.55743222 0.66315607 0.45050695
-0.46934516 0.77703703 0.53056164
-0.48904614 0.83941268 0.71289183
-0.34547852 0.92413603 0.78685221
-0.74836567 0.48143429 0.49374361
-0.71197099 0.37673158 0.35740347
-0.68061677 0.61749388 0.55571319
-0.59450489 0.73724738 0.62901680
-0.60618055 0.78354498 0.81360924
-0.47353833 0.87846145 0.88622798
-0.84289541 0.41470646 0.60715039
-0.82044134 0.31726369 0.47437434
-0.78806460 0.54787619 0.66931188
-0.70780464 0.67342783 0.73667502
-0.71703788 0.69609266 0.91378210
-0.59327446 0.80412411 0.98754720
-0.90653910 0.27369010 0.62862701
-0.88849533 0.41843714 0.76162172
-0.81440064 0.56909096 0.83647846
-0.69381076 0.70617828 1.09120489
0.02823701 0.65898550 0.19837457
-0.05117021 0.53682873 0.10786191
0.13390104 0.54642798 0.12326725
0.09499584 0.77188237 0.32137181
0.20245576 0.66529994 0.23139882
0.25457300 0.76875004 0.36330084
-0.41983196 0.31145518 0.09751142
-0.17971254 0.24018964 -0.00394567
-0.28081302 0.36653057 0.06298289
-0.23905518 0.50928592 0.12327124
-0.11540000 0.40043830 0.04097194
-0.15586732 0.63846509 0.19629737
-0.07181092 0.75284792 0.29573463
0.16377456 0.86357354 0.47311576
0.00504003 0.85716185 0.43497751
-0.08108241 0.91889644 0.56392357
0.07284702 0.93347218 0.59882617
0.11739746 0.97625125 0.76792497
-0.54973536 0.29507372 0.16851265
-0.33391396 0.18843676 0.02642377
-0.18009822 0.97861055 0.85057132
-0.04666876 0.97384312 0.72762276
-0.61947970 0.11665018 0.17370263
-0.54601355 -0.02501715 0.11259727
-0.48758866 0.14778192 0.08952467
-0.67585631 0.25360561 0.25797222
-0.31652213 0.94858080 0.95286722
-0.00978697 0.99839057 0.89413880
-0.14439069 0.98752565 1.01280471
-0.10221191 0.96936394 1.17335230
-0.73361591 0.07378344 0.27445300
-0.66520318 -0.07000004 0.20662615
-0.78781098 0.19974721 0.36737243
-0.44577157 0.88904864 1.05430852
-0.27967271 0.94562501 1.11606175
-0.23503200 0.91655393 1.27355658
-0.76680433 -0.10112302 0.31613462
-0.88205169 0.15533172 0.50518897
-0.83490282 0.02552442 0.40019478
-0.56017765 0.80187973 1.15782169
-0.35752745 0.83345137 1.37134660
-0.40576306 0.87400992 1.21732563
-0.94879905 0.09906866 0.65005707
-0.90860440 -0.02149874 0.53289594
-0.95559173 0.23097760 0.76698689
-0.94017753 0.33443647 0.88505022
-0.88393702 0.46759545 0.94686232
-0.80239774 0.59267355 1.01997067
-0.65837209 0.68666158 1.25828889
-0.51645655 0.77259555 1.31928140
-0.96547634 -0.06722366 0.69833277
-0.98850270 0.06278416 0.81244788
-0.94239769 0.31989942 1.04772882
-0.98302537 0.18297660 0.93655966
-0.87381180 0.45608046 1.11865198
-0.77857155 0.57946935 1.19091824
-0.84111121 0.42799045 1.28069029
-0.60654556 0.64510952 1.41468932
-0.97594937 0.15636535 1.10189711
-0.92012906 0.29508100 1.20746786
-0.01101850 0.27102712 -0.01250865
0.08546782 0.12992771 -0.03783302
0.16509563 0.27609561 0.00315542
0.06306354 0.41594741 0.04280058
0.23994254 0.41493536 0.07235756
0.30881870 0.54185839 0.16832200
0.36987979 0.65083117 0.28697084
0.40727511 0.74056997 0.41550665
0.32042523 0.84391865 0.51973394
0.22958868 0.92286711 0.64079880
0.48056249 0.77904271 0.54731876
0.39060228 0.87851982 0.67498586
-0.23921792 0.06218944 -0.01897226
-0.13197690 -0.06777524 -0.03893308
-0.07940124 0.10658011 -0.04112870
0.16158025 0.98674666 0.93507060
0.28321976 0.94811631 0.80556289
0.32709110 0.94469291 0.97380624
-0.39999025 0.01766417 0.03365085
-0.29874847 -0.10611819 0.00158645
0.03142524 0.99350733 1.05934164
0.20350907 0.96716714 1.10222291
-0.45826489 -0.15326518 0.07449840
0.07529340 0.95933134 1.22205569
-0.59257435 -0.20781202 0.17175207
-0.05677414 0.92350438 1.32936315
-0.84066878 -0.16437011 0.43399759
-0.71148738 -0.25110832 0.29369956
-0.30311783 0.76729885 1.51513009
-0.18582869 0.86131335 1.42287098
-0.91513621 -0.17572528 0.58716896
-0.78527741 -0.32346758 0.42207183
-0.45942300 0.71982601 1.47036621
-0.24631237 0.67524548 1.64525090
-0.86306615 -0.31278129 0.55340868
-0.98904982 -0.11087050 0.85259283
-0.94377730 -0.24910946 0.73267790
-0.99931264 0.02305741 0.97902894
-0.73532175 0.54630365 1.35106638
-0.67057509 0.49758977 1.50021215
-0.53394311 0.58559430 1.55990500
-0.39090849 0.63863246 1.61282659
-0.96156363 -0.26997259 0.89989787
-0.98846519 -0.13336500 1.02176599
-0.94179431 0.12703422 1.26126484
-0.87254503 0.25949226 1.36391892
-0.78600315 0.38671267 1.43234052
-0.70713669 0.33818164 1.57095967
0.33355617 0.26709379 0.04589759
0.40300856 0.09092040 0.03933126
0.48192032 0.24499099 0.10873176
0.40688448 0.40724878 0.13232438
0.55341272 0.38091521 0.20929905
0.47422599 0.53392067 0.24997256
0.61382018 0.49163305 0.33232553
0.52976020 0.64345487 0.39744234
0.66324129 0.57466212 0.47054774
0.60660608 0.69726367 0.56809369
0.17926049 -0.01471050 -0.03369168
0.25825477 0.12199813 -0.00834283
0.53760136 0.80757036 0.70748224
0.44062045 0.89106892 0.84114332
-0.00579881 -0.21505108 -0.02658558
0.02039889 -0.03910972 -0.04902669
0.48110840 0.87458528 1.01029362
0.51297211 0.82789127 1.17683844
-0.33983705 -0.26389467 0.04729830
-0.20585842 -0.36193931 0.04081228
-0.16950729 -0.22146325 -0.01032354
0.24574405 0.91622912 1.26643962
0.36561749 0.91073814 1.14204139
0.40344679 0.84275379 1.30636599
-0.47590920 -0.32542040 0.13292473
-0.33503923 -0.42970484 0.11148794
0.11696291 0.89574893 1.37889807
0.27601812 0.83618637 1.42392651
-0.59976118 -0.37446915 0.24285124
-0.45749084 -0.48529119 0.20488622
-0.00913534 0.84910089 1.47815168
0.15348852 0.79968782 1.53046589
-0.69326296 -0.43434629 0.37490893
-0.56493735 -0.53225491 0.31948392
-0.13439294 0.78048547 1.56055796
0.02859633 0.74256634 1.61916177
-0.65800883 -0.57795878 0.46731168
-0.77809952 -0.47539098 0.53943382
-0.26717292 0.54894006 1.74201229
-0.10237961 0.66717688 1.68783023
-0.87566898 -0.39508099 0.67230452
-0.90447261 -0.40899663 0.82895825
-0.57424847 0.44548052 1.63686664
-0.42697579 0.50528387 1.69991990
-0.90600371 -0.42038784 0.99930889
-0.97994402 -0.01130536 1.14895201
-0.95132352 -0.28602219 1.06478192
-0.93364025 -0.04570912 1.30528378
-0.88252722 0.08951730 1.41166258
-0.79754714 0.21441062 1.51386760
-0.60959548 0.29236120 1.68682987
-0.69284013 0.16092395 1.65290540
-0.95352702 -0.18333979 1.18910834
-0.89958709 -0.22206445 1.32607241
-0.86262194 -0.08715723 1.44828410
-0.80016602 0.04697807 1.54793594
0.54670054 0.08250019 0.11674598
0.62283839 0.22313115 0.20014347
0.69180647 0.32914146 0.30729501
0.74424080 0.41465461 0.42639027
0.77828982 0.48873684 0.55579035
0.73163457 0.60819494 0.64208812
0.14165316 -0.17307569 -0.02466876
0.26009175 -0.24130835 0.01505478
0.31648698 -0.07160955 0.00410993
0.46459306 -0.07440490 0.06760711
0.66641693 0.71651744 0.74386588
0.71502336 0.69766755 0.90526147
0.58442464 0.80813648 0.87676553
0.62122978 0.77827521 1.04144020
0.12332326 -0.35732144 0.02419617
0.64178264 0.72352644 1.20421365
-0.15508863 -0.49670249 0.09604793
-0.04354577 -0.36612389 0.02045329
0.54714755 0.74176387 1.33783485
0.41811326 0.75158163 1.46020229
-0.28548615 -0.56993819 0.17950140
0.29962998 0.72158094 1.57413366
-0.40405951 -0.62686133 0.28383130
0.17815052 0.67143911 1.66932738
-0.51440196 -0.66275552 0.40580725
0.04872341 0.60774772 1.74263409
-0.58661313 -0.71084508 0.56194802
-0.71131505 -0.62523565 0.62889051
-0.15709878 0.41797335 1.84477274
-0.10990611 0.54706372 1.77984451
-0.81384246 -0.53276427 0.71800284
-0.73293368 -0.66359700 0.80017595
-0.47136094 0.35291380 1.75825165
-0.31756297 0.40160037 1.80899411
-0.83378872 -0.54910683 0.89274506
-0.83625572 -0.53416534 1.07387006
-0.89720343 -0.37256058 1.18711736
-0.58680021 0.03650402 1.75890848
-0.53539673 0.18508271 1.77407208
-0.37486571 0.24082185 1.84525445
-0.84133922 -0.36847661 1.34544068
-0.81323196 -0.25142732 1.47482199
-0.76296674 -0.13022870 1.58318419
-0.70046321 -0.00438805 1.66367501
0.59908732 -0.07800665 0.15312526
0.68060160 0.07235989 0.22092836
0.75925523 0.17547812 0.32331119
0.81984191 0.26450105 0.44216294
0.85817192 0.34736667 0.57200878
0.84857485 0.46648709 0.70037914
0.29393431 -0.39062038 0.07763637
0.40224032 -0.23439390 0.06497893
0.54128986 -0.23490099 0.14264202
0.79259120 0.59029652 0.79719545
0.83055287 0.55693386 0.95257242
0.74351595 0.65947010 1.06082966
0.18155558 -0.51330462 0.11121757
0.74994946 0.60724703 1.21234873
-0.10287563 -0.62216242 0.17390045
0.01855845 -0.50493359 0.08704136
0.67781702 0.61321303 1.35562770
0.54361247 0.64895240 1.48230274
-0.22921920 -0.69679550 0.27034230
0.42848849 0.62285840 1.60455711
-0.34362519 -0.74967505 0.38439495
0.30766438 0.57480096 1.70825227
-0.44538938 -0.77526939 0.50213200
0.17757716 0.51487182 1.78867357
-0.46660648 -0.83066042 0.64622105
-0.60870665 -0.75960404 0.72091938
-0.03016220 0.30994043 1.90027741
0.02278796 0.45828866 1.83851124
-0.63226688 -0.77234644 0.88901173
-0.20919196 0.27162213 1.88939348
-0.74648303 -0.66481124 0.97809003
-0.73064771 -0.65307937 1.14910111
-0.81100544 -0.51414345 1.22915342
-0.48368496 -0.07044962 1.82240229
-0.42563577 0.08164969 1.85120334
-0.26058935 0.11511557 1.90856223
-0.75492488 -0.49531690 1.37982512
-0.73490184 -0.39457854 1.50156787
-0.69336088 -0.27846517 1.61461109
-0.62860516 -0.14578652 1.71393838
0.71871700 -0.07676136 0.25894748
0.80347527 0.01720683 0.35491057
0.86992296 0.10737551 0.46864303
0.91632669 0.19413940 0.59977827
0.92577662 0.30648752 0.72863369
0.96022825 0.27153961 0.88497753
0.45177171 -0.38632637 0.14585186
0.59820743 -0.37509803 0.24186912
0.67192662 -0.22677526 0.24495564
0.89431858 0.43597447 0.84939917
0.91578392 0.39779078 1.00569827
[...]
CELL_DATA 956
VECTORS FaceNormals double
-0.42155506 0.54356339 -0.72583067
-0.34062338 0.67616690 -0.65327945
-0.41351029 0.62459154 -0.66249124
-0.24727599 0.78901064 -0.56242048
-0.33113324 0.74051135 -0.58480229
-0.32494932 0.84846952 -0.41774085
-0.24135108 0.83557967 -0.49351421
-0.27265281 0.90615198 -0.32334042
-0.57539327 0.50792483 -0.64104208
-0.49785784 0.48351234 -0.71996763
-0.50435867 0.63649036 -0.58352579
-0.55464361 0.59738791 -0.57922203
-0.42134473 0.75267275 -0.50591734
-0.47289345 0.72141424 -0.50589849
-0.45512013 0.82628179 -0.33184948
-0.37937809 0.82515102 -0.41856667
-0.30738988 0.91615382 -0.25724237
-0.40036781 0.88521311 -0.23686149
-0.70153865 0.46232288 -0.54231087
-0.64376096 0.44803152 -0.62035441
-0.63660177 0.59940817 -0.48522988
-0.68142215 0.55605208 -0.47588858
-0.55530704 0.72095342 -0.41456032
-0.60332048 0.68441487 -0.40936619
-0.51025232 0.79534169 -0.32722189
-0.57461901 0.78452050 -0.23311068
-0.43932680 0.88399294 -0.15983882
-0.52323331 0.84019667 -0.14246565
-0.80534846 0.40467958 -0.43318390
-0.76494848 0.39578641 -0.50814067
-0.78813449 0.49515875 -0.36559791
-0.74993845 0.54450824 -0.37563692
-0.67241823 0.67262028 -0.30892666
-0.72194741 0.62303034 -0.30104008
-0.68282276 0.71934514 -0.12765442
-0.63213934 0.74119936 -0.22588354
-0.56049866 0.82624844 -0.05616732
-0.64237473 0.76519084 -0.04286825
-0.86096581 0.32956223 -0.38746175
-0.84390199 0.46903780 -0.26044764
-0.89195662 0.36112958 -0.27202724
-0.77409918 0.60122025 -0.19825404
-0.83760514 0.50965747 -0.19663896
-0.73948296 0.67061219 0.05868764
-0.75034241 0.64964607 -0.12225491
-0.67233244 0.73881749 0.04601957
0.03776930 0.57894810 -0.81448915
0.12288672 0.62808500 -0.76838017
0.10787200 0.70255217 -0.70340890
0.18543736 0.73630165 -0.65074793
-0.33572295 0.28443939 -0.89798905
-0.20529009 0.43111398 -0.87863343
-0.32603614 0.44713251 -0.83293034
-0.14227167 0.48905089 -0.86057423
-0.14871034 0.55748621 -0.81675845
-0.06018558 0.61922159 -0.78290633
0.02149412 0.73069902 -0.68236131
-0.06786194 0.68250607 -0.72772263
0.16396502 0.80964807 -0.56354722
0.09778394 0.83154552 -0.54678182
0.00089970 0.80008741 -0.59988276
0.07088081 0.89267809 -0.44508621
0.01089462 0.90471902 -0.42586947
0.04898220 0.96515035 -0.25707109
-0.48864216 0.24317328 -0.83791145
-0.27271339 0.27082566 -0.92319059
-0.48075442 0.37316333 -0.79348870
-0.33505115 0.51846924 -0.78672128
-0.36613487 0.39634561 -0.84193552
-0.24540129 0.59200090 -0.76766733
-0.24913753 0.65350241 -0.71474827
-0.15975585 0.71190642 -0.68386205
-0.16396567 0.76829380 -0.61874057
-0.08851618 0.87410290 -0.47760759
-0.06325872 0.81516330 -0.57576656
-0.14240819 0.87937522 -0.45433372
-0.11415871 0.94881562 -0.29447702
-0.16974246 0.92301393 -0.34530100
-0.01851841 0.94902592 -0.31465358
-0.14126585 0.97137677 -0.19097418
-0.54893261 0.07443520 -0.83254573
-0.55999146 0.19547725 -0.80510758
-0.41930989 0.21660449 -0.88162447
-0.61120905 0.21677485 -0.76120442
-0.50507129 0.39273182 -0.76854714
-0.61592065 0.33189449 -0.71448429
-0.27937128 0.95576521 -0.09200302
-0.24975948 0.95377123 -0.16715453
-0.08217777 0.98842701 -0.12751021
-0.10749466 0.99372387 -0.03094784
-0.21886508 0.97573993 -0.00544698
-0.04472301 0.99817156 0.04066178
-0.62267823 0.01453807 -0.78234294
-0.66828139 0.03261510 -0.74319327
-0.72976345 0.17379995 -0.66124041
-0.68587387 0.15514282 -0.71099067
-0.73647689 0.28092762 -0.61537100
-0.65046673 0.35251338 -0.67277586
-0.38222183 0.92148963 -0.06901691
-0.41147548 0.91135954 0.01057000
-0.24408126 0.96703124 0.07262860
-0.35289561 0.93066892 0.09654035
-0.20244564 0.95118227 0.23295504
-0.18065484 0.97088784 0.15729157
-0.72937232 -0.02452769 -0.68367713
-0.79340602 0.10138339 -0.60019021
-0.83733887 0.12611650 -0.53193820
-0.77841253 -0.00189450 -0.62775023
-0.83666145 0.22313887 -0.50020662
-0.77070878 0.29855098 -0.56291677
-0.50885548 0.86033355 0.02987116
-0.53419361 0.83752107 0.11487227
-0.31261299 0.91434556 0.25738166
-0.37542029 0.90997456 0.17608493
-0.47598304 0.85735576 0.19591135
-0.33039205 0.88210466 0.33575656
-0.91650316 0.07608659 -0.39272484
-0.88141438 0.05892052 -0.46865452
-0.91815138 0.17880722 -0.35359019
-0.94190803 0.19433110 -0.27394286
-0.87341930 0.25314846 -0.41599830
-0.92992934 0.32809094 -0.16609562
-0.91912101 0.32249936 -0.22629791
-0.87036491 0.48082274 -0.10618101
-0.90181564 0.42265115 -0.08996978
-0.83314579 0.55280580 -0.01654798
-0.78494530 0.61892304 -0.02819840
-0.63835515 0.73718284 0.22150435
-0.61946831 0.77407992 0.13061118
-0.71622331 0.65925770 0.22891800
-0.49324219 0.82265062 0.28276865
-0.58453517 0.75570403 0.29534735
-0.94572403 0.00050477 -0.32497046
-0.96914887 0.13366340 -0.20708588
-0.97248642 0.03048150 -0.23095679
-0.96594492 0.24356677 -0.08732496
-0.96113828 0.27582649 0.01153084
-0.98041854 0.16131248 -0.11295025
-0.92451463 0.38054597 0.02138845
-0.90652414 0.41427136 0.08119863
-0.83189489 0.49366772 0.25346218
-0.82413324 0.54422979 0.15690233
-0.85661104 0.50897890 0.08460497
-0.76058445 0.63053600 0.15471148
-0.67403455 0.62734145 0.39002581
-0.59342674 0.70710641 0.38450648
-0.97124162 0.22503140 0.07778556
-0.91303730 0.36409007 0.18385131
-0.95224203 0.25232454 0.17195184
-0.88662013 0.39118297 0.24674000
0.07971533 0.22864843 -0.97023985
0.07467479 0.32202386 -0.94378192
0.15502968 0.37248847 -0.91499625
0.22755598 0.50569649 -0.83215944
0.04541360 0.50638680 -0.86110975
0.14896834 0.45919836 -0.87575413
0.21649378 0.58567216 -0.78110086
0.29427836 0.62362762 -0.72421601
0.27896532 0.69901009 -0.65845519
0.32301881 0.79275626 -0.51691041
0.33935957 0.72207817 -0.60285836
0.40058358 0.79537528 -0.45487466
0.40288607 0.83765614 -0.36880211
0.31616124 0.88557927 -0.34028139
-0.14584117 0.03152556 -0.98880559
-0.17414554 0.14049533 -0.97464578
-0.08710688 0.20585660 -0.97469762
-0.10413196 0.30695717 -0.94600942
-0.00487274 0.17342511 -0.98483501
-0.02231135 0.36641299 -0.93018478
-0.19149522 0.33540286 -0.92240690
-0.03010109 0.45151833 -0.89175396
0.25349008 0.82592417 -0.50357924
0.23121518 0.88516958 -0.40375037
0.16469405 0.90782586 -0.38565279
0.13851738 0.95082300 -0.27703529
0.30487039 0.92153922 -0.24045687
0.21054556 0.95371943 -0.21468537
0.19081871 0.97525183 -0.11167849
0.25634800 0.96543138 -0.04720110
-0.30938545 -0.00672372 -0.95091295
-0.22758657 -0.03835425 -0.97300221
-0.33195098 0.08869698 -0.93911735
-0.24271007 0.16188427 -0.95649637
0.08786694 0.99245228 -0.08554456
0.06460359 0.99782132 0.01337835
0.23375978 0.97073352 0.05507087
0.13054615 0.98796362 0.08297944
-0.46270548 -0.05371408 -0.88488329
-0.39342019 -0.08464103 -0.91545423
-0.48580220 0.04772004 -0.87276516
-0.40370466 0.11780798 -0.90727274
0.02250805 0.98832598 -0.15068227
0.10566175 0.97851580 0.17703791
-0.00117235 0.97858189 0.20585457
-0.06800394 0.98920955 0.12976874
-0.54689047 -0.12842191 -0.82729597
-0.59012827 -0.10856748 -0.79997608
-0.02510438 0.95710445 0.28865349
-0.13539835 0.93921066 0.31551644
-0.70189933 -0.15487725 -0.69523404
-0.77908367 -0.19838144 -0.59470450
-0.67368411 -0.17323891 -0.71842745
-0.82661394 -0.07420368 -0.55785590
-0.37971653 0.77745127 0.50138297
-0.15679980 0.90834231 0.38772164
-0.26469842 0.87277557 0.41011896
-0.28031759 0.82735531 0.48672912
-0.87025105 -0.22234628 -0.43957394
-0.78254488 -0.22905506 -0.57892771
-0.88965079 -0.11759575 -0.44123997
-0.86282000 -0.06308313 -0.50155974
-0.43332263 0.82882052 0.35396052
-0.44320795 0.78096127 0.44007523
-0.21173983 0.80624109 0.55239619
-0.32037829 0.70175400 0.63631680
-0.84055295 -0.25689575 -0.47694373
-0.93540044 -0.08146622 -0.34407741
-0.96975581 -0.15178504 -0.19114125
-0.94890495 -0.16410087 -0.26953719
-0.91048676 -0.26842010 -0.31458626
-0.98647423 -0.03396336 -0.16035924
-0.99762569 -0.01251286 -0.06772299
-0.99501771 0.08988460 -0.04313370
-0.79286207 0.51778647 0.32135170
-0.67112728 0.56769722 0.47676832
-0.72423596 0.60981732 0.32187747
-0.53391618 0.71503213 0.45128988
-0.53466385 0.65389784 0.53530569
-0.60948162 0.57869423 0.54189034
-0.46363398 0.65523067 0.59641957
-0.38457785 0.71016996 0.58971052
-0.97005058 -0.20590002 -0.12886833
-0.99747252 -0.07080227 -0.00596728
-0.98419186 -0.17597299 -0.01999745
-0.97081805 0.08595920 0.22388239
-0.99121197 0.11722828 0.06128920
-0.99045602 0.05860624 0.12474846
-0.94999686 0.19940460 0.24029934
-0.91711246 0.22383396 0.32985314
-0.87827149 0.33322953 0.34292457
-0.78732742 0.45941950 0.41115600
-0.84280643 0.35642704 0.40328289
-0.72237457 0.41212154 0.55527543
-0.73847508 0.47714705 0.47642969
-0.59863776 0.51102185 0.61683831
0.40692211 0.19369222 -0.89269128
0.48447883 0.34117248 -0.80553187
0.40954000 0.31393881 -0.85657423
0.54987025 0.46841397 -0.69154252
0.47754807 0.44805840 -0.75577213
0.60069795 0.57210780 -0.55843947
0.53930485 0.56602524 -0.62351078
0.59425629 0.65065855 -0.47276095
0.17136088 0.08301279 -0.98170481
0.17347437 0.17716001 -0.96877292
0.34083975 0.16883884 -0.92483605
0.25092159 0.22199826 -0.94220758
0.24898820 0.32118900 -0.91369716
0.31951453 0.45504607 -0.83116998
0.32961423 0.36457888 -0.87088271
0.40279671 0.49869273 -0.76750268
0.38483068 0.57257131 -0.72392503
0.46645646 0.61693117 -0.63388824
0.44290711 0.66952686 -0.59629446
0.49769597 0.71817532 -0.48633624
0.53478003 0.70647434 -0.46357775
0.55127033 0.76516089 -0.33261064
0.46175756 0.86318281 -0.20419448
0.46808606 0.82607640 -0.31383631
-0.04310888 -0.12008739 -0.99182692
-0.06755704 0.00780771 -0.99768486
0.01120173 0.06177743 -0.99802709
0.09135917 0.03074407 -0.99534331
0.41644089 0.90909517 -0.01108859
0.37095312 0.91094752 -0.18046718
0.35446023 0.93218096 -0.07346154
0.45516422 0.87617428 0.15856912
-0.24602236 -0.27469973 -0.92952303
-0.26801313 -0.20305881 -0.94177284
-0.20568869 -0.13032147 -0.96990127
-0.09133244 -0.16064408 -0.98277763
0.39384272 0.91432312 0.09434591
0.27186694 0.93670164 0.22063183
0.29931489 0.94626583 0.12244006
0.34262073 0.89335876 0.29072523
-0.38431237 -0.34294366 -0.85714272
-0.30042719 -0.35188910 -0.88651992
-0.43230724 -0.24974980 -0.86644994
-0.36795336 -0.16908460 -0.91434169
0.17562665 0.95213918 0.25017246
0.14712724 0.92965338 0.33778421
0.30861628 0.87060122 0.38315729
0.21619509 0.88654249 0.40902578
-0.51437072 -0.40057170 -0.75826451
-0.42719953 -0.41158591 -0.80504509
-0.56228212 -0.30386304 -0.76909432
-0.50788082 -0.22971326 -0.83023424
0.04444202 0.92988384 0.36515880
0.01694853 0.89643679 0.44284740
0.17793359 0.84999401 0.49583245
0.09221648 0.85094706 0.51709305
-0.62039330 -0.44917595 -0.64292544
-0.54555634 -0.46048919 -0.70022710
-0.63595303 -0.27946397 -0.71934945
-0.68106849 -0.35223552 -0.64193135
-0.10882073 0.83898119 0.53316846
-0.08540264 0.87993040 0.46736376
0.05346765 0.80357262 0.59280035
-0.03421924 0.79299215 0.60827008
-0.64082280 -0.52042796 -0.56435882
-0.71702164 -0.49304716 -0.49273164
-0.75995167 -0.41946400 -0.49651124
-0.71978954 -0.33985652 -0.60531030
-0.22696673 0.74559774 0.62655416
-0.16054902 0.71680207 0.67854168
-0.19134186 0.61662644 0.76364921
-0.07078128 0.73610963 0.67315126
-0.83633636 -0.40527364 -0.36918123
-0.80790198 -0.38370362 -0.44728729
-0.91703196 -0.34544507 -0.19929900
-0.90564270 -0.29764343 -0.30202598
-0.46255738 0.56911438 0.67981578
-0.50599228 0.52250587 0.68626484
-0.31723246 0.60919331 0.72680608
-0.35176645 0.57671459 0.73733347
-0.93897233 -0.31460324 -0.13912501
-0.93030993 -0.36530576 -0.03278928
-0.97899690 -0.11031034 0.17145466
-0.97337110 -0.22598671 0.03845385
-0.94326365 -0.33099653 0.02636251
-0.95669768 0.02865507 0.28966954
-0.99364588 -0.04018216 0.10513452
-0.90300576 0.16451050 0.39688399
-0.92454265 0.05253867 0.37743949
-0.85522578 0.18608830 0.48369414
-0.81833192 0.28970202 0.49639259
-0.68602234 0.25899574 0.67992246
-0.72987446 0.23746901 0.64100838
-0.77463572 0.31214237 0.55000603
-0.65433398 0.42705160 0.62407849
-0.63440339 0.36822551 0.67966339
-0.97006897 -0.19539100 0.14418235
-0.93406127 -0.14172235 0.32778700
-0.96028312 -0.08545684 0.26561903
-0.89666105 -0.00927612 0.44262051
-0.90256048 -0.12573699 0.41179460
-0.83183996 0.12312883 0.54118534
-0.85418144 0.01151770 0.51984749
-0.76431089 0.14003417 0.62945952
0.55483436 0.18114710 -0.81200034
0.47581171 0.14692115 -0.86718936
0.62417606 0.31609876 -0.71448290
0.55218020 0.28835379 -0.78227177
0.68071393 0.41923859 -0.60072252
0.62450373 0.40280007 -0.66913914
0.72474266 0.49822705 -0.47593896
0.68123570 0.49396314 -0.54029467
0.71974941 0.56872322 -0.39813903
0.67625734 0.62396155 -0.39159673
0.24036819 -0.14181361 -0.96026665
0.22216527 -0.10796800 -0.96901264
0.39385181 -0.01048577 -0.91911414
0.27336086 0.02036410 -0.96169597
0.47534169 0.02666248 -0.87939718
0.31942716 0.03516759 -0.94695804
0.66505889 0.68337420 -0.30115838
0.60566131 0.74201916 -0.28737074
0.60026169 0.78182139 -0.16864526
0.65579141 0.74684488 -0.11027399
0.52122508 0.84066704 -0.14698076
0.64658836 0.76281399 -0.00618907
0.08749778 -0.26349379 -0.96068474
0.16395460 -0.26809130 -0.94933974
0.05096113 -0.13382240 -0.98969416
0.10825293 -0.08215394 -0.99072298
0.50612998 0.86165545 -0.03717962
0.54204483 0.83037289 0.12910564
0.59383566 0.78228080 0.18813813
0.56262727 0.82635935 0.02409941
-0.12372993 -0.41589072 -0.90095828
-0.12618357 -0.31033124 -0.94221666
0.03746104 -0.30560027 -0.95142270
-0.08423233 -0.27698513 -0.95717509
0.49477326 0.80558535 0.32593201
0.56334647 0.77230571 0.29357223
0.45827565 0.78309324 0.42041456
0.42568415 0.86655908 0.26051557
-0.23941844 -0.44408269 -0.86340569
-0.25505763 -0.49343012 -0.83154815
0.32389416 0.77602635 0.54117990
0.37056329 0.81408980 0.44714723
-0.38249100 -0.55590662 -0.73801658
-0.36495392 -0.50752068 -0.78053276
0.25336623 0.78787218 0.56130472
0.20122644 0.73714917 0.64507288
-0.49401573 -0.60460774 -0.62481833
-0.47856702 -0.55845871 -0.67756733
0.13042390 0.73978487 0.66008178
0.07860996 0.67966037 0.72930258
-0.58931934 -0.65421205 -0.47403513
-0.58640777 -0.59246324 -0.55237056
-0.72218019 -0.56233231 -0.40278796
-0.65509493 -0.63903261 -0.40309796
-0.19732970 0.49711945 0.84494570
-0.17933536 0.60532788 0.77551079
-0.04742777 0.60931666 0.79150731
-0.00195117 0.67523369 0.73760129
-0.82154990 -0.47404947 -0.31675362
-0.77392550 -0.54122707 -0.32880478
-0.75505371 -0.61302126 -0.23259157
-0.86731159 -0.45583484 -0.19996299
-0.49758329 0.43274168 0.75176160
-0.23754184 0.46816304 0.85111529
-0.34409948 0.48356623 0.80483492
-0.40237331 0.42718618 0.80969604
-0.79785092 -0.58496331 -0.14578010
-0.86085855 -0.50794874 0.03017679
-0.85554891 -0.49724566 -0.14416245
-0.88488895 -0.46416719 -0.03899183
-0.88412890 -0.44120946 0.15378655
-0.91592764 -0.37657225 0.13881607
-0.61683061 0.19376383 0.76287324
-0.61722556 0.13442334 0.77521802
-0.54936607 0.37110564 0.74865047
-0.53445571 0.27912267 0.79777668
-0.46495809 0.25725833 0.84713171
-0.38872484 0.33234775 0.85932413
-0.91829285 -0.27632283 0.28352061
-0.93535464 -0.28068302 0.21524111
-0.85299691 -0.28118674 0.43969341
-0.89320286 -0.31258868 0.32322897
-0.86532475 -0.18491237 0.46585458
-0.81763742 -0.15631743 0.55410640
-0.76429873 -0.03233334 0.64405125
-0.81137756 -0.05456472 0.58197006
-0.65678982 0.07914118 0.74990920
-0.73804203 0.07769947 0.67026619
0.61496747 0.02205772 -0.78824391
0.61503324 0.12838035 -0.77797982
0.69234127 0.16852600 -0.70161425
0.69530777 0.23438206 -0.67942045
0.75961214 0.27184035 -0.59084027
0.75883289 0.32263734 -0.56575418
0.80847700 0.35799310 -0.46712512
0.80194549 0.40249991 -0.44144904
0.83510969 0.43295555 -0.33932477
0.79241332 0.52894977 -0.30379807
0.32902404 -0.30062828 -0.89519038
0.33388522 -0.17074743 -0.92701994
0.38818795 -0.13631656 -0.91144277
0.47980344 -0.17286413 -0.86017827
0.52872147 -0.13882238 -0.83736608
0.53618528 -0.01627989 -0.84394331
0.79479852 0.55368051 -0.24846169
0.73459726 0.64373500 -0.21441108
0.72937387 0.66932417 -0.14148821
0.78101273 0.62188218 -0.05728588
0.77027643 0.63752279 0.01545671
0.69184603 0.72030160 0.05014648
0.19520777 -0.42124218 -0.88569123
0.22184347 -0.33372513 -0.91619485
0.67523776 0.72066785 0.15713628
0.70993963 0.67456550 0.20235391
-0.06919471 -0.54663821 -0.83450510
-0.06764144 -0.45596662 -0.88742272
0.10795381 -0.45331332 -0.88478981
0.04234739 -0.41666354 -0.90807389
0.68336360 0.65783933 0.31664112
0.63133164 0.69057852 0.35287627
0.59697131 0.66825306 0.44391790
0.50537963 0.72031290 0.47512184
-0.20263293 -0.62795174 -0.75140968
-0.18839846 -0.57324272 -0.79743263
0.39534355 0.69948953 0.59533005
0.45538755 0.68048852 0.57407103
-0.32578384 -0.68976582 -0.64659725
-0.31042139 -0.64061020 -0.70232267
0.27876344 0.65608138 0.70131888
0.33269854 0.64598262 0.68703576
-0.43571082 -0.72449856 -0.53409542
-0.42449688 -0.68945781 -0.58689891
0.20817595 0.59246199 0.77823619
0.15070852 0.59895255 0.78647491
-0.51120071 -0.77432984 -0.37294386
-0.52260290 -0.71634460 -0.46231657
-0.64479529 -0.70102819 -0.30462849
-0.55143838 -0.77297754 -0.31372191
-0.07465400 0.46972680 0.87964965
-0.05812784 0.40133537 0.91408483
0.07894366 0.52851946 0.84524262
-0.00975472 0.54111875 0.84088961
-0.66229598 -0.73437865 -0.14849928
-0.68495059 -0.68775811 -0.24048176
-0.23787403 0.35974616 0.90221874
-0.12759413 0.33052723 0.93513180
-0.77367679 -0.63041816 -0.06322322
-0.70820992 -0.70355434 -0.05873662
-0.81068597 -0.58430086 0.03715865
-0.77762731 -0.61822652 0.11441914
-0.86213762 -0.46544311 0.20020347
-0.79237048 -0.57526707 0.20301925
-0.51392414 0.09074379 0.85302259
-0.50270420 0.02825494 0.86399661
-0.44947358 0.17609634 0.87576457
-0.35111146 0.14655484 0.92479318
-0.29813994 0.30987310 0.90282404
-0.28785009 0.20899887 0.93459178
-0.81357063 -0.45671499 0.35988087
-0.85002573 -0.42520364 0.31089889
-0.80089239 -0.34706471 0.48797282
-0.78465170 -0.40805476 0.46670442
-0.76046160 -0.22818922 0.60797026
-0.75178049 -0.30182335 0.58628385
-0.69979164 -0.10442758 0.70667287
-0.69666260 -0.17989161 0.69447839
-0.57434004 -0.06950491 0.81566083
-0.63177319 -0.04600364 0.77378699
0.74056409 0.01802412 -0.67174397
0.66253168 -0.02154734 -0.74872390
0.81550248 0.11458371 -0.56729734
0.75064784 0.07875555 -0.65599191
0.82076378 0.16967415 -0.54548831
0.87287298 0.20347095 -0.44350010
0.90465781 0.28611363 -0.31580569
0.87123612 0.25460542 -0.41967095
0.92984358 0.34506040 -0.12776636
0.88246835 0.37586115 -0.28280383
0.38154279 -0.33432991 -0.86177063
0.46543175 -0.29285407 -0.83523037
0.60212863 -0.28373953 -0.74627943
0.53481320 -0.33263055 -0.77674434
0.65721107 -0.13584144 -0.74136409
0.61382420 -0.17468256 -0.76987392
0.84813627 0.50606453 -0.15672768
0.89654091 0.39839843 -0.19363134
0.87042580 0.48795433 0.06526490
0.88238435 0.47048793 -0.00624260
0.84551927 0.52565776 -0.09370750
0.80722281 0.58211475 0.09764088
0.44013549 -0.47826826 -0.75996067
0.36672661 -0.43759497 -0.82098857
0.27781124 -0.48193638 -0.83099834
0.51847764 -0.42710892 -0.74078263
0.89275126 0.42517541 0.14906732
0.78697923 0.59283423 0.17091302
0.85425957 0.45788997 0.24612470
0.80967167 0.53127974 0.24934639
0.15995857 -0.59908260 -0.78454655
-0.01158285 -0.58751543 -0.80913006
0.25529039 -0.56179146 -0.78690353
0.09328929 -0.56035288 -0.82298345
0.74474816 0.52902186 0.40679978
0.74806119 0.56182454 0.35321049
0.70706639 0.53466982 0.46280158
0.62336514 0.61091345 0.48805804
-0.02489895 -0.67515309 -0.73725732
-0.13424663 -0.69081003 -0.71046417
0.56731237 0.57184638 0.59257775
0.51890272 0.59342089 0.61529799
-0.25240657 -0.75614447 -0.60376855
-0.15657850 -0.75600579 -0.63556150
0.40419271 0.55408399 0.72774939
0.45506180 0.53921537 0.70863640
-0.28254406 -0.81383095 -0.50778739
-0.35546329 -0.80118358 -0.48140494
0.33115668 0.48643236 0.80852879
0.27864810 0.49751976 0.82147996
-0.36766033 -0.87146013 -0.32462768
-0.39977201 -0.83431907 -0.37959718
-0.43872733 -0.87150333 -0.21908963
-0.52633984 -0.82132311 -0.21998799
0.04883144 0.36901083 0.92814142
0.07015547 0.29080555 0.95420666
0.20027968 0.42602305 0.88226550
0.12410266 0.44268448 0.88804785
-0.59401493 -0.80400328 0.02692559