# vtk DataFile Version 3.0
Visualize mesh data
ASCII

DATASET UNSTRUCTURED_GRID
POINTS 370 double
-0.00502204 -0.30232584 -0.05319140
-0.06168487 -0.36549866 -0.02876571
0.01414764 -0.37055197 -0.02870396
0.07460062 -0.30652112 -0.04893599
0.08242685 -0.38278887 -0.02015135
0.14112544 -0.35249594 -0.02511094
-0.16435225 -0.25174704 -0.05373571
-0.22027624 -0.30209965 -0.02747730
-0.14326794 -0.32209656 -0.03580347
-0.10776394 -0.22034061 -0.06945190
-0.08137125 -0.29207295 -0.05292819
-0.03422078 -0.22908592 -0.07280449
0.04084861 -0.23600945 -0.07089183
0.15821294 -0.28911480 -0.04412994
0.11786643 -0.23416764 -0.06502489
0.20651811 -0.23424061 -0.04999033
0.22562414 -0.32032064 -0.02004806
0.27708229 -0.26548812 -0.02344004
-0.24782620 -0.15437876 -0.05642531
-0.30602673 -0.21346308 -0.02778295
-0.23211944 -0.22541794 -0.04620681
-0.16933604 -0.16753909 -0.07121364
-0.08374223 -0.15647823 -0.08412490
-0.00393691 -0.16212794 -0.08676187
0.07317467 -0.16519149 -0.08354322
0.15079576 -0.16821851 -0.07414744
0.21916986 -0.15604971 -0.06312672
0.27631658 -0.18536437 -0.04302130
-0.27538320 -0.08067459 -0.05794350
-0.32351166 -0.14486897 -0.03506855
-0.20143153 -0.09138270 -0.07523052
-0.12716071 -0.09439018 -0.08738068
-0.04516717 -0.09064802 -0.09485821
0.03407323 -0.09333170 -0.09505186
0.11306811 -0.09617622 -0.08892152
0.19003950 -0.09051048 -0.07759545
0.33781397 -0.13533308 -0.03143260
0.27231094 -0.09767238 -0.05723915
0.34993279 -0.06004954 -0.03484819
-0.32414496 -0.00936081 -0.04596112
-0.40304726 -0.03944178 -0.01432887
-0.34493497 -0.07585603 -0.03555635
-0.24324422 -0.01601437 -0.06983290
-0.16584250 -0.02098006 -0.08592907
-0.08829875 -0.02305877 -0.09582714
-0.00809595 -0.02194119 -0.09972647
0.07073234 -0.02419427 -0.09720186
0.14765759 -0.02307665 -0.08876929
0.22583300 -0.02375471 -0.07387636
0.29375604 -0.02306189 -0.05560217
0.34924269 0.02615374 -0.03666726
-0.34172124 0.06063133 -0.03784350
-0.40080589 0.02971390 -0.01568100
-0.27312693 0.05525230 -0.06038997
-0.19964924 0.05224367 -0.07847372
-0.12469024 0.04994693 -0.09093777
-0.04840445 0.04814200 -0.09766695
0.03055257 0.04753089 -0.09840242
0.10933916 0.04663773 -0.09290979
0.19001074 0.04520064 -0.08074096
0.27135354 0.04944070 -0.06120906
0.34642977 0.09701128 -0.03304622
-0.39324334 0.11119282 -0.01268605
-0.24129935 0.12422757 -0.06246672
-0.31700256 0.12827429 -0.03971008
-0.16510811 0.12267772 -0.07861612
-0.08872142 0.12159519 -0.08860663
-0.01278904 0.11876011 -0.09284059
0.06468692 0.11777168 -0.09093157
0.14134040 0.11565756 -0.08318166
0.21577458 0.11495933 -0.06965235
0.28368801 0.12197593 -0.05112723
0.39325148 0.15478703 -0.00630805
-0.20587534 0.19283251 -0.05939094
-0.28418738 0.19200325 -0.03934673
-0.12872490 0.19278739 -0.07276044
-0.05182300 0.19301128 -0.07982705
0.02293214 0.18846326 -0.08181248
0.10117452 0.18724017 -0.07709000
0.14461993 0.25119492 -0.05707166
0.17909791 0.18486080 -0.06630764
0.32572159 0.18034413 -0.02810637
0.25002030 0.19149376 -0.04911540
-0.24023604 0.26056761 -0.03508887
-0.16539800 0.26246685 -0.05066011
-0.08986747 0.26285598 -0.06064073
-0.12863044 0.33166564 -0.03458658
-0.01326856 0.26441920 -0.06431655
0.05895420 0.25516510 -0.06509850
0.10419636 0.30580702 -0.04637477
0.21491084 0.26134056 -0.04101775
0.17662825 0.33020821 -0.02723513
-0.05196769 0.33146188 -0.04203627
0.02741895 0.33461159 -0.04195718
0.09788936 0.36742178 -0.02488861
0.15118247 0.40302274 -0.00261650
-0.25134608 -0.42639241 0.03108420
-0.29723072 -0.47653133 0.07261147
-0.22120002 -0.49375039 0.05899992
-0.17583768 -0.44149065 0.02013233
-0.14219531 -0.50283849 0.04739579
-0.09564843 -0.44380710 0.00899687
-0.06548007 -0.50501484 0.03937676
-0.02560280 -0.43543482 0.00014391
0.00689645 -0.50381428 0.03621551
0.04858573 -0.44368598 0.00513568
0.08447705 -0.50323844 0.03999146
0.12979025 -0.43819317 0.01053878
0.15724473 -0.50518292 0.05143400
0.20727703 -0.45278984 0.03281053
0.23426476 -0.51218623 0.07369175
0.28369698 -0.46502686 0.06139042
-0.34702477 -0.33460149 0.02386322
-0.39673471 -0.38329184 0.06592032
-0.32504967 -0.40692407 0.04632821
-0.27585623 -0.35561830 0.00700560
-0.20321342 -0.37254363 -0.00549189
-0.12875788 -0.38687554 -0.01309839
0.19049564 -0.38790300 -0.00179968
0.25906113 -0.39633214 0.01920029
0.32986280 -0.40931091 0.04932078
0.29982609 -0.34078148 0.00894877
0.37992337 -0.35451096 0.04561123
-0.43670797 -0.23654313 0.03205212
-0.48761547 -0.28185537 0.07368972
-0.41832635 -0.31020921 0.04631778
-0.36438534 -0.26294035 0.00664356
-0.29094926 -0.28331435 -0.01382796
0.34919268 -0.29321173 0.01000484
0.43182984 -0.30132726 0.04986771
0.39587808 -0.24440740 0.01481893
0.45642731 -0.22466849 0.03907135
-0.45422933 -0.16173452 0.02391913
-0.50550604 -0.20552146 0.06201156
-0.38159081 -0.19137435 -0.00430319
0.33706185 -0.21450025 -0.01672182
0.40351418 -0.16966157 0.00089421
0.51184636 -0.20391499 0.06547501
0.47119361 -0.14348418 0.02971908
0.55019468 -0.14991117 0.07853034
-0.46399921 -0.08182974 0.01795205
-0.51817507 -0.12575513 0.05402114
-0.40010801 -0.11944151 -0.00865135
0.40953889 -0.09617320 -0.00720922
0.46685556 -0.05987832 0.01769593
0.52265710 -0.09339165 0.05258771
-0.46780029 -0.00423125 0.01617595
-0.52686334 -0.04467790 0.05122509
0.40932223 -0.01067041 -0.01232747
0.47432953 0.01515253 0.01978304
0.53499508 -0.02381649 0.05548056
-0.45918578 0.07326471 0.01468607
-0.52462202 0.03608961 0.04943004
0.41632676 0.07324000 -0.00626043
0.48397776 0.08613629 0.02916934
0.54042596 0.05134683 0.06017663
-0.44471592 0.15320820 0.01752903
-0.51134253 0.11736015 0.04867431
-0.36759120 0.18430828 -0.01154110
0.43094260 0.22114863 0.02513900
0.45976236 0.14815697 0.02440413
0.53591985 0.13395897 0.06642642
-0.43852162 0.22383580 0.02959993
-0.50293481 0.19551852 0.05808010
-0.37936160 0.25328141 0.01009365
0.29026672 0.25413737 -0.02258304
0.36378267 0.23802431 -0.00055907
0.50156218 0.20407078 0.05929168
0.46681720 0.27943659 0.06095477
-0.48847711 0.27382034 0.07149985
-0.31394434 0.25412956 -0.01479892
-0.42458272 0.30370787 0.04706916
-0.28012231 0.32491145 -0.00330726
-0.20475417 0.32952651 -0.02167675
0.25277686 0.32595643 -0.01096449
0.32749835 0.31422761 0.00892993
0.39838305 0.29895258 0.03286775
0.43294474 0.35642844 0.07204010
-0.35151124 0.32180965 0.02086499
-0.24699986 0.39213184 0.01387151
-0.32208520 0.38811180 0.03650107
-0.17038158 0.39664733 -0.00202051
-0.09345078 0.39892662 -0.01220862
-0.01727166 0.39705825 -0.01763085
0.05769179 0.41605690 -0.00750664
0.18755664 0.46785358 0.03632441
0.22103810 0.39614090 0.00881287
0.29311129 0.38701767 0.02575573
0.36406341 0.37391388 0.04697820
0.39874813 0.43078598 0.09041777
-0.28933695 0.45139512 0.05588713
-0.13688871 0.46211734 0.02380993
-0.21320920 0.45746583 0.03671160
-0.06292403 0.46539387 0.01713582
0.00458477 0.46463147 0.01450773
0.06279087 0.49581915 0.03384718
0.11662317 0.46149647 0.02055695
0.25850600 0.45843810 0.04970052
0.21810724 0.52675158 0.07843932
0.32897055 0.44634303 0.06780037
-0.17360090 0.52040768 0.06391474
-0.09423637 0.52618468 0.05486735
-0.01452132 0.53089458 0.05268654
0.06382781 0.55154079 0.06829771
0.14029036 0.53026748 0.06385704
-0.07478173 -0.62226665 0.12077483
-0.15250915 -0.61561006 0.12684723
-0.11736844 -0.67238426 0.16916206
0.00232817 -0.62345707 0.11814591
-0.03958207 -0.67732596 0.16538253
0.07836847 -0.62177825 0.12073740
0.03674720 -0.67763686 0.16552200
0.15707901 -0.61869246 0.13022997
0.11307701 -0.67322785 0.16926208
0.19250789 -0.66435242 0.17779746
-0.26527286 -0.54247457 0.10291054
-0.38299543 -0.56632239 0.17020997
-0.30791795 -0.58746451 0.15162041
-0.18701196 -0.55582631 0.09001013
-0.23042692 -0.60396910 0.13702896
-0.10897644 -0.56360251 0.08117380
-0.03253666 -0.56628311 0.07643166
0.04331541 -0.56424624 0.07553049
0.11956775 -0.56483078 0.08350154
0.23949037 -0.60311812 0.13914987
0.19753709 -0.56278628 0.09734770
0.28856492 -0.54261917 0.11114337
0.31532580 -0.59925377 0.16415724
0.36336803 -0.54581290 0.14498212
-0.44218954 -0.42955616 0.11263099
-0.48412415 -0.47350734 0.16419121
-0.41420808 -0.49986675 0.13936546
-0.37103820 -0.45485476 0.09040889
-0.34107053 -0.52313024 0.11897137
0.34540829 -0.48403636 0.09600874
0.41512227 -0.49093649 0.13406601
0.39546177 -0.42328170 0.08486655
0.45750251 -0.43338487 0.12355360
-0.46663168 -0.35658529 0.09061643
-0.51055217 -0.40147910 0.13963755
0.45472190 -0.36355031 0.08694454
0.51407540 -0.40635672 0.14461883
0.50091624 -0.28456831 0.08262386
0.52130687 -0.34506810 0.11950841
-0.55331153 -0.25016284 0.10547819
-0.59704423 -0.29601052 0.15440222
-0.53375971 -0.32702124 0.12015536
0.56129611 -0.23424564 0.10622694
0.57244122 -0.30221787 0.13778260
-0.56830204 -0.17119583 0.09518650
-0.61506492 -0.22097312 0.14312085
0.60329604 -0.16788417 0.12035342
0.62002105 -0.24420214 0.15438672
0.65917230 -0.18601172 0.17137697
-0.63358092 -0.07225252 0.12970474
-0.68419099 -0.11584431 0.17995634
-0.62714082 -0.14609145 0.13491722
-0.57814544 -0.08972991 0.08901521
0.58906174 -0.08080879 0.09596255
0.64340270 -0.10919786 0.14230033
-0.64169383 -0.00518976 0.13305666
-0.69234657 -0.04252525 0.17968907
-0.58385688 -0.00471469 0.08815708
0.59480649 -0.00105991 0.09613177
0.64720660 -0.03478919 0.13847955
-0.62910831 0.06227797 0.12518122
-0.68997633 0.03459684 0.17699536
-0.57298541 0.08152179 0.08449897
0.59508628 0.07758059 0.10009154
0.65004623 0.04212930 0.14127412
-0.62116885 0.13732839 0.12844952
-0.67767650 0.10657167 0.17240324
-0.56324959 0.16263437 0.08987662
0.59784323 0.14737861 0.11205139
0.65177482 0.11858851 0.15091630
-0.66735411 0.18313669 0.17812785
-0.55059451 0.24363792 0.10157266
-0.60912645 0.21361928 0.13623842
0.53357118 0.26681891 0.09743568
0.56871217 0.20620646 0.10373034
0.64005244 0.19791149 0.15759584
-0.53378069 0.32230979 0.11821064
-0.59489298 0.29121268 0.15080210
-0.46871039 0.35153991 0.08961108
0.49885055 0.33843833 0.10212305
0.60777223 0.25746867 0.14878579
0.56585610 0.31658736 0.13869890
[...]
POINT_DATA 370

SCALARS deformation double
LOOKUP_TABLE default 
0.00000000
0.00000000
0.00000000
0.00000000
0.00000000
0.00000000
0.00000000
0.00000000
0.00000000
0.00000000
0.00000000
0.00000000
0.00000000
0.00000000
0.00000000
0.00000000
0.00000000
0.00000000
0.00000000
0.00000000
0.00000000
0.00000000
0.00000000
0.00000000
0.00000000
0.00000000
0.00000000
0.00000000
0.00000000
0.00000000
0.00000000
0.00000000
0.00000000
0.00000000
0.00000000
0.00000000
0.00000000
0.00000000
0.00000000
0.00000000
0.00000000
0.00000000
0.00000000
0.00000000
0.00000000
0.00000000
0.00000000
0.00000000
0.00000000
0.00000000
0.00000000
0.00000000
0.00000000
0.00000000
0.00000000
0.00000000
0.00000000
0.00000000
0.00000000
0.00000000
0.00000000
0.00000000
0.00000000
0.00000000
0.00000000
0.00000000
0.00000000
0.00000000
0.00000000
0.00000000
0.00000000
0.00000000
0.00000000
0.00000000
0.00000000
0.00000000
0.00000000
0.00000000
0.00000000
0.00000000
0.00000000
0.00000000
0.00000000
0.00000000
0.00000000
0.00000000
0.00000000
0.00000000
0.00000000
0.00000000
0.00000000
0.00000000
0.00000000
0.00000000
0.00000000
0.00000000
0.00000000
0.00000000
0.00000000
0.00000000
0.00000000
0.00000000
0.00000000
0.00000000
0.00000000
0.00000000
0.00000000
0.00000000
0.00000000
0.00000000
0.00000000
0.00000000
0.00000000
0.00000000
0.00000000
0.00000000
0.00000000
0.00000000
0.00000000
0.00000000
0.00000000
0.00000000
0.00000000
0.00000000
0.00000000
0.00000000
0.00000000
0.00000000
0.00000000
0.00000000
0.00000000
0.00000000
0.00000000
0.00000000
0.00000000
0.00000000
0.00000000
0.00000000
0.00000000
0.00000000
0.00000000
0.00000000
0.00000000
0.00000000
0.00000000
0.00000000
0.00000000
0.00000000
0.00000000
0.00000000
0.00000000
0.00000000
0.00000000
0.00000000
0.00000000
0.00000000
0.00000000
0.00000000
0.00000000
0.00000000
0.00000000
0.00000000
0.00000000
0.00000000
0.00000000
0.00000000
0.00000000
0.00000000
0.00000000
0.00000000
0.00000000
0.00000000
0.00000000
0.00000000
0.00000000
0.00000000
0.00000000
0.00000000
0.00000000
0.00000000
0.00000000
0.00000000
0.00000000
0.00000000
0.00000000
0.00000000
0.00000000
0.00000000
0.00000000
0.00000000
0.00000000
0.00000000
0.00000000
0.00000000
0.00000000
0.00000000
0.00000000
0.00000000
0.00000000
0.00000000
0.00000000
0.00000000
0.00000000
0.00000000
0.00000000
0.00000000
0.00000000
0.00000000
0.00000000
0.00000000
0.00000000
0.00000000
0.00000000
0.00000000
0.00000000
0.00000000
0.00000000
0.00000000
0.00000000
0.00000000
0.00000000
0.00000000
0.00000000
0.00000000
0.00000000
0.00000000
0.00000000
0.00000000
0.00000000
0.00000000
0.00000000
0.00000000
0.00000000
0.00000000
0.00000000
0.00000000
0.00000000
0.00000000
0.00000000
0.00000000
0.00000000
0.00000000
0.00000000
0.00000000
0.00000000
0.00000000
0.00000000
0.00000000
0.00000000
0.00000000
0.00000000
0.00000000
0.00000000
0.00000000
0.00000000
0.00000000
0.00000000
0.00000000
0.00000000
0.00000000
0.00000000
0.00000000
0.00000000
0.00000000
0.00000000
0.00000000
0.00000000
0.00000000
0.00000000
0.00000000
0.00000000
0.00000000
0.00000000
0.00000000
0.00000000
0.00000000
0.00000000
0.00000000
0.00000000
0.00000000
0.00000000
0.00000000
0.00000000
0.00000000
0.00000000
0.00000000
0.00000000
0.00000000
0.00000000
0.00000000
0.00000000
0.00000000
0.00000000
0.00000000
0.00000000
0.00000000
0.00000000
0.00000000
0.00000000
0.00000000
0.00000000
0.00000000
0.00000000
0.00000000
0.00000000
0.00000000
0.00000000
0.00000000
0.00000000
0.00000000
0.00000000
0.00000000
0.00000000
0.00000000
0.00000000
0.00000000
0.00000000
0.00000000
0.00000000
0.00000000
0.00000000
0.00000000
0.00000000
0.00000000
0.00000000
0.00000000
0.00000000
0.00000000
0.00000000
0.00000000
0.00000000
0.00000000
0.00000000
0.00000000
0.00000000
0.00000000
0.00000000
0.00000000
0.00000000
0.00000000
0.00000000
0.00000000
0.00000000
0.00000000
0.00000000
0.00000000
0.00000000
0.00000000
0.00000000
0.00000000
0.00000000
0.00000000
0.00000000
0.00000000
0.00000000
0.00000000
0.00000000
0.00000000
0.00000000
0.00000000
0.00000000
0.00000000
0.00000000
0.00000000
0.00000000
0.00000000
0.00000000
0.00000000
0.00000000
0.00000000


SCALARS normal_stress double
LOOKUP_TABLE default 
0.00000000
0.00000000
0.00000000
0.00000000
0.00000000
0.00000000
0.00000000
0.00000000
0.00000000
0.00000000
0.00000000
0.00000000
0.00000000
0.00000000
0.00000000
0.00000000
0.00000000
0.00000000
0.00000000
0.00000000
0.00000000
0.00000000
0.00000000
0.00000000
0.00000000
0.00000000
0.00000000
0.00000000
0.00000000
0.00000000
0.00000000
0.00000000
0.00000000
0.00000000
0.00000000
0.00000000
0.00000000
0.00000000
0.00000000
0.00000000
0.00000000
0.00000000
0.00000000
0.00000000
0.00000000
0.00000000
0.00000000
0.00000000
0.00000000
0.00000000
0.00000000
0.00000000
0.00000000
0.00000000
0.00000000
0.00000000
0.00000000
0.00000000
0.00000000
0.00000000
0.00000000
0.00000000
0.00000000
0.00000000
0.00000000
0.00000000
0.00000000
0.00000000
0.00000000
0.00000000
0.00000000
0.00000000
0.00000000
0.00000000
0.00000000
0.00000000
0.00000000
0.00000000
0.00000000
0.00000000
0.00000000
0.00000000
0.00000000
0.00000000
0.00000000
0.00000000
0.00000000
0.00000000
0.00000000
0.00000000
0.00000000
0.00000000
0.00000000
0.00000000
0.00000000
0.00000000
0.00000000
0.00000000
0.00000000
0.00000000
0.00000000
0.00000000
0.00000000
0.00000000
0.00000000
0.00000000
0.00000000
0.00000000
0.00000000
0.00000000
0.00000000
0.00000000
0.00000000
0.00000000
0.00000000
0.00000000
0.00000000
0.00000000
0.00000000
0.00000000
0.00000000
0.00000000
0.00000000
0.00000000
0.00000000
0.00000000
0.00000000
0.00000000
0.00000000
0.00000000
0.00000000
0.00000000
0.00000000
0.00000000
0.00000000
0.00000000
0.00000000
0.00000000
0.00000000
0.00000000
0.00000000
0.00000000
0.00000000
0.00000000
0.00000000
0.00000000
0.00000000
0.00000000
0.00000000
0.00000000
0.00000000
0.00000000
0.00000000
0.00000000
0.00000000
0.00000000
0.00000000
0.00000000
0.00000000
0.00000000
0.00000000
0.00000000
0.00000000
0.00000000
0.00000000
0.00000000
0.00000000
0.00000000
0.00000000
0.00000000
0.00000000
0.00000000
0.00000000
0.00000000
0.00000000
0.00000000
0.00000000
0.00000000
0.00000000
0.00000000
0.00000000
0.00000000
0.00000000
0.00000000
0.00000000
0.00000000
0.00000000
0.00000000
0.00000000
0.00000000
0.00000000
0.00000000
0.00000000
0.00000000
0.00000000
0.00000000
0.00000000
0.00000000
0.00000000
0.00000000
0.00000000
0.00000000
0.00000000
0.00000000
0.00000000
0.00000000
0.00000000
0.00000000
0.00000000
0.00000000
0.00000000
0.00000000
0.00000000
0.00000000
0.00000000
0.00000000
0.00000000
0.00000000
0.00000000
0.00000000
0.00000000
0.00000000
0.00000000
0.00000000
0.00000000
0.00000000
0.00000000
0.00000000
0.00000000
0.00000000
0.00000000
0.00000000
0.00000000
0.00000000
0.00000000
0.00000000
0.00000000
0.00000000
0.00000000
0.00000000
0.00000000
0.00000000
0.00000000
0.00000000
0.00000000
0.00000000
0.00000000
0.00000000
0.00000000
0.00000000
0.00000000
0.00000000
0.00000000
0.00000000
0.00000000
0.00000000
0.00000000
0.00000000
0.00000000
0.00000000
0.00000000
0.00000000
0.00000000
0.00000000
0.00000000
0.00000000
0.00000000
0.00000000
0.00000000
0.00000000
0.00000000
0.00000000
0.00000000
0.00000000
0.00000000
0.00000000
0.00000000
0.00000000
0.00000000
0.00000000
0.00000000
0.00000000
0.00000000
0.00000000
0.00000000
0.00000000
0.00000000
0.00000000
0.00000000
0.00000000
0.00000000
0.00000000
0.00000000
0.00000000
0.00000000
0.00000000
0.00000000
0.00000000
0.00000000
0.00000000
0.00000000
0.00000000
0.00000000
0.00000000
0.00000000
0.00000000
0.00000000
0.00000000
0.00000000
0.00000000
0.00000000
0.00000000
0.00000000
0.00000000
0.00000000
0.00000000
0.00000000
0.00000000
0.00000000
0.00000000
0.00000000
0.00000000
0.00000000
0.00000000
0.00000000
0.00000000
0.00000000
0.00000000
0.00000000
0.00000000
0.00000000
0.00000000
0.00000000
0.00000000
0.00000000
0.00000000
0.00000000
0.00000000
0.00000000
0.00000000
0.00000000
0.00000000
0.00000000
0.00000000
0.00000000
0.00000000
0.00000000
0.00000000
0.00000000
0.00000000
0.00000000
0.00000000
0.00000000
0.00000000
0.00000000
0.00000000
0.00000000
0.00000000
0.00000000
0.00000000
0.00000000
0.00000000
0.00000000
0.00000000
0.00000000
0.00000000
0.00000000
0.00000000
0.00000000
0.00000000


VECTORS normals double
-0.00619102 -0.30189417 -0.95332134
-0.06310694 -0.36553351 -0.92865643
0.01599962 -0.37178955 -0.92817915
0.07566034 -0.30760144 -0.94850243
0.08212758 -0.38267722 -0.92022454
0.14252552 -0.35371514 -0.92443068
-0.16260857 -0.25298436 -0.95370717
-0.21992296 -0.30247239 -0.92743967
-0.14325038 -0.32498953 -0.93480540
-0.10768898 -0.22004153 -0.96952814
-0.08309076 -0.28881609 -0.95377208
-0.03629501 -0.22892101 -0.97276813
0.03967254 -0.23530581 -0.97111136
0.15599856 -0.28965607 -0.94433247
0.11803107 -0.23368686 -0.96512130
0.20582948 -0.23377016 -0.95025562
0.22394196 -0.32139231 -0.92008531
0.27895900 -0.26542492 -0.92289300
-0.24925259 -0.15443549 -0.95604541
-0.30679341 -0.21242815 -0.92776726
-0.23234581 -0.22689359 -0.94579846
-0.16873199 -0.16844672 -0.97116179
-0.08302210 -0.15808553 -0.98392901
-0.00327066 -0.16222246 -0.98674879
0.07400569 -0.16526191 -0.98346920
0.15171061 -0.16661777 -0.97428046
0.21944105 -0.15599047 -0.96307455
0.27607552 -0.18502003 -0.94315953
-0.27755221 -0.08113907 -0.95727803
-0.32477629 -0.14295529 -0.93492467
-0.20267047 -0.09063832 -0.97504327
-0.12672535 -0.09363646 -0.98750843
-0.04560235 -0.09112805 -0.99479450
0.03386469 -0.09343258 -0.99504951
0.11260143 -0.09558145 -0.98903241
0.18938494 -0.09170499 -0.97761114
0.33940538 -0.13614100 -0.93073606
0.27217692 -0.09744001 -0.95730098
0.34857149 -0.05878151 -0.93543714
-0.32499257 -0.00944209 -0.94566943
-0.40268632 -0.04043982 -0.91444429
-0.34548270 -0.07740923 -0.93522699
-0.24227962 -0.01606130 -0.97007351
-0.16538969 -0.02082371 -0.98600843
-0.08784054 -0.02265937 -0.99587680
-0.00800860 -0.02218902 -0.99972172
0.07096442 -0.02395181 -0.99719124
0.14851880 -0.02330960 -0.98863483
0.22655892 -0.02362088 -0.97371100
0.29411611 -0.02224073 -0.95551089
0.34966249 0.02456835 -0.93655354
-0.34215885 0.06191793 -0.93759986
-0.40052466 0.03008015 -0.91579210
-0.27506051 0.05575927 -0.95980864
-0.20075055 0.05238453 -0.97824081
-0.12527693 0.05004173 -0.99085898
-0.04859411 0.04838289 -0.99764608
0.03013769 0.04757311 -0.99841300
0.10879764 0.04667610 -0.99296748
0.18861881 0.04570089 -0.98098643
0.27164098 0.04993038 -0.96110256
0.34444761 0.09823255 -0.93365208
-0.39206935 0.10900640 -0.91345456
-0.24122351 0.12425032 -0.96248277
-0.31719149 0.12588213 -0.93996981
-0.16513014 0.12269911 -0.97860971
-0.08875538 0.12147958 -0.98861782
-0.01252082 0.11907361 -0.99280648
0.06499871 0.11774766 -0.99091405
0.14215669 0.11588145 -0.98303762
0.21735676 0.11601669 -0.96917293
0.28319516 0.12429093 -0.95097438
0.39298352 0.15670083 -0.90609536
-0.20548947 0.19288290 -0.95946353
-0.28342285 0.19194734 -0.93958911
-0.12852517 0.19291008 -0.97276255
-0.05180761 0.19265769 -0.97989744
0.02338610 0.18896698 -0.98170493
0.10157123 0.18693174 -0.97710788
0.14248998 0.25255968 -0.95703198
0.17896326 0.18588936 -0.96613524
0.32444902 0.17909608 -0.92879353
0.25080989 0.18982886 -0.94924149
-0.24124138 0.26034613 -0.93489170
-0.16590316 0.26247094 -0.95057096
-0.09000166 0.26308585 -0.96056522
-0.12898432 0.33158587 -0.93456613
-0.01348369 0.26346117 -0.96457576
0.06117132 0.25540870 -0.96489609
0.10259207 0.30691627 -0.94619093
0.21542004 0.25974230 -0.94134380
0.17487115 0.33050972 -0.92746073
-0.05222577 0.33187746 -0.94187569
0.02897511 0.33481438 -0.94183851
0.10073937 0.36322474 -0.92623937
0.14824282 0.40561510 -0.90194260
-0.25104482 -0.42620403 -0.86909529
-0.29706993 -0.47637900 -0.82753399
-0.22097066 -0.49331818 -0.84131393
-0.17534237 -0.44069920 -0.88036314
-0.14250200 -0.50252985 -0.85273497
-0.09703901 -0.44258843 -0.89145887
-0.06551403 -0.50480519 -0.86074365
-0.02563501 -0.43732224 -0.89893943
0.00742243 -0.50421607 -0.86354564
0.04846571 -0.44257846 -0.89541911
0.08451659 -0.50381425 -0.85966746
0.12997372 -0.43719852 -0.88992375
0.15901195 -0.50587516 -0.84782399
0.20825387 -0.45240523 -0.86715618
0.23086349 -0.50975929 -0.82876264
0.28179005 -0.46609590 -0.83865904
-0.34676441 -0.33461167 -0.87623597
-0.39658118 -0.38330278 -0.83414768
-0.32475453 -0.40678862 -0.85384865
-0.27509259 -0.35558652 -0.89324257
-0.20204440 -0.37286708 -0.90562034
-0.13243796 -0.38844069 -0.91190680
0.19154334 -0.39005322 -0.90064956
0.25808557 -0.39658306 -0.88097316
0.32980706 -0.41018201 -0.85028114
0.30181676 -0.34106497 -0.89027037
0.37933408 -0.35586816 -0.85408636
-0.43674664 -0.23650815 -0.86793794
-0.48749897 -0.28187032 -0.82637394
-0.41819057 -0.31020464 -0.85375039
-0.36458928 -0.26267883 -0.89335015
-0.29113213 -0.28322027 -0.91379886
0.35107416 -0.29090808 -0.89001091
0.42922557 -0.29925735 -0.85217982
0.39615728 -0.24295281 -0.88545657
0.45560588 -0.22479852 -0.86132974
-0.45358881 -0.16138648 -0.87647681
-0.50520785 -0.20542164 -0.83819268
-0.38191381 -0.19112573 -0.90421944
0.33834558 -0.21521111 -0.91608212
0.40327710 -0.17204352 -0.89875948
0.51061510 -0.20565670 -0.83485181
0.47250900 -0.14325529 -0.86960518
0.54820900 -0.15220661 -0.82237464
-0.46372714 -0.08216734 -0.88215966
-0.51804869 -0.12588633 -0.84603675
-0.39879611 -0.11830081 -0.90937703
0.40901740 -0.09634955 -0.90742577
0.46846379 -0.05945518 -0.88147987
0.52343195 -0.09246116 -0.84703597
-0.46672819 -0.00432054 -0.88439026
-0.52604804 -0.04485690 -0.84927105
0.41032598 -0.01260532 -0.91185179
0.47508628 0.01661010 -0.87978243
0.53430079 -0.02543999 -0.84491151
-0.45902956 0.07354430 -0.88537173
-0.52374544 0.03629321 -0.85110136
0.41671117 0.07340578 -0.90607030
0.48520537 0.08566679 -0.87019363
0.53976585 0.04998303 -0.84033001
-0.44559062 0.15291666 -0.88208021
-0.51182339 0.11739576 -0.85103176
-0.36793085 0.18564562 -0.91113259
0.43120043 0.22138708 -0.87467362
0.46030059 0.14725983 -0.87546440
0.53618538 0.13361666 -0.83345775
-0.43763141 0.22489731 -0.87057449
-0.50227647 0.19564890 -0.84228253
-0.37981600 0.25569913 -0.88902068
0.29010619 0.25363516 -0.92277170
0.36335862 0.23794598 -0.90075092
0.50131286 0.20601805 -0.84038204
0.46708058 0.28025037 -0.83862713
-0.48832989 0.27402915 -0.82851792
-0.31533311 0.25488649 -0.91411045
-0.42370310 0.30264209 -0.85374671
-0.28031830 0.32518648 -0.90314750
-0.20513915 0.32940076 -0.92163608
0.25345662 0.32554423 -0.91092299
0.32767582 0.31408367 -0.89105556
0.39856725 0.29868808 -0.86713873
0.43314481 0.35652527 -0.82781357
-0.35234416 0.32020693 -0.87938678
-0.24707529 0.39230158 -0.88603232
-0.32237233 0.38721269 -0.86379535
-0.17064148 0.39661413 -0.90198598
-0.09401245 0.39875566 -0.91222562
-0.01821456 0.39900326 -0.91676858
0.05972999 0.41697758 -0.90695205
0.18664695 0.46651375 -0.86459692
0.22081774 0.39616771 -0.89122987
0.29306081 0.38691698 -0.87430579
0.36415181 0.37371902 -0.85306949
0.39921676 0.43060457 -0.80944776
-0.28942671 0.45106580 -0.84425815
-0.13621369 0.46222222 -0.87623995
-0.21284460 0.45752099 -0.86334913
-0.06130219 0.46525386 -0.88305203
0.00466094 0.46374868 -0.88595453
0.06265370 0.49496350 -0.86665197
0.11806117 0.46269100 -0.87862313
0.25823866 0.45846804 -0.85036454
0.21898960 0.52633299 -0.82159427
0.32918961 0.44623823 -0.83216924
-0.17396633 0.52051812 -0.83594055
-0.09514283 0.52614129 -0.84505810
-0.01311492 0.53022667 -0.84775449
0.06350521 0.55126791 -0.83190791
0.13895127 0.52994052 -0.83657372
-0.07484747 -0.62208580 -0.77936328
-0.15258597 -0.61552238 -0.77320742
-0.11734179 -0.67233163 -0.73089061
0.00223131 -0.62349933 -0.78182070
-0.03963427 -0.67726158 -0.73467399
0.07852062 -0.62198209 -0.77908459
0.03684615 -0.67758125 -0.73452434
0.15714731 -0.61823778 -0.77012127
0.11338203 -0.67336437 -0.73056481
0.19198561 -0.66449669 -0.72220889
-0.26517129 -0.54225361 -0.79727361
-0.38299172 -0.56628791 -0.72981870
-0.30788015 -0.58736829 -0.74847064
-0.18715003 -0.55568848 -0.81005257
-0.23052574 -0.60391679 -0.76298257
-0.10910792 -0.56340590 -0.81894399
-0.03259720 -0.56607521 -0.82370886
0.04332251 -0.56476934 -0.82411089
0.11963382 -0.56471602 -0.81656817
0.23836851 -0.60508462 -0.75964009
0.19879202 -0.56175360 -0.80306577
0.28731076 -0.54216099 -0.78962902
0.31531400 -0.59982950 -0.73537858
0.36421199 -0.54573976 -0.75466399
-0.44210736 -0.42957774 -0.78740336
-0.48414042 -0.47353532 -0.73578010
-0.41415831 -0.49983965 -0.76067945
-0.37088421 -0.45478685 -0.80969983
-0.34099619 -0.52305063 -0.78111436
0.34606384 -0.48289407 -0.80439613
0.41529148 -0.48988475 -0.76651544
0.39644022 -0.42339275 -0.81460035
0.45663978 -0.43424974 -0.77647104
-0.46653363 -0.35661835 -0.80942555
-0.51051042 -0.40158475 -0.76033466
0.45571077 -0.36398558 -0.81230671
0.51266836 -0.40669782 -0.75615345
0.50160912 -0.28426621 -0.81705631
0.52391198 -0.34601846 -0.77832349
-0.55321147 -0.25052809 -0.79447640
-0.59720590 -0.29606310 -0.74544735
-0.53367532 -0.32712093 -0.77986060
0.56159295 -0.23143401 -0.79438760
0.57229866 -0.30057823 -0.76297246
-0.56827204 -0.17208327 -0.80464541
-0.61503009 -0.22082575 -0.75695044
0.60403761 -0.16761662 -0.77912980
0.62016358 -0.24350536 -0.74572265
0.66064402 -0.18474093 -0.72761272
-0.63435551 -0.07046733 -0.76982299
-0.68448895 -0.11535330 -0.71983921
-0.62712037 -0.14548820 -0.76521450
-0.57833900 -0.09156237 -0.81064193
0.58862972 -0.08139198 -0.80429497
0.64619055 -0.11000723 -0.75520605
-0.64455462 -0.00491580 -0.76454246
-0.69160223 -0.04168139 -0.72107490
-0.58518940 -0.00467857 -0.81088315
0.59477367 0.00122589 -0.80389227
0.64751056 -0.03468103 -0.76126690
-0.63035674 0.06085492 -0.77391670
-0.68927228 0.03398844 -0.72370471
-0.57348472 0.08286195 -0.81501483
0.59576056 0.07928046 -0.79923961
0.65027780 0.04208327 -0.75853001
-0.62130288 0.13671978 -0.77155067
-0.67829345 0.10672249 -0.72699953
-0.56322047 0.16357014 -0.80995525
0.59864942 0.14750146 -0.78731328
0.65050606 0.11895391 -0.75012788
-0.66737346 0.18274909 -0.72195251
-0.55058643 0.24375363 -0.79839762
-0.60946220 0.21354659 -0.76351403
0.53477452 0.26704692 -0.80168707
0.56938479 0.20408305 -0.79633603
0.63818013 0.19595744 -0.74453126
-0.53381068 0.32214346 -0.78183742
-0.59525289 0.29085293 -0.74905178
-0.46832683 0.35104447 -0.81082536
0.49949148 0.33842426 -0.79748184
0.60737789 0.25758330 -0.75149380
0.56668507 0.31914237 -0.75961581
-0.57819745 0.36568750 -0.72935613
-0.39708467 0.37374085 -0.83823717
-0.51132466 0.39663118 -0.76238494
-0.36698143 0.44079397 -0.81916135
0.46681484 0.41211821 -0.78245926
0.50538758 0.46026526 -0.72988992
0.53201169 0.39024833 -0.75144515
-0.44098540 0.42244006 -0.79188148
-0.33100715 0.50270209 -0.79857678
-0.40953134 0.48993772 -0.76957463
-0.25255421 0.51392819 -0.81981350
0.29343836 0.51620863 -0.80462573
0.36510312 0.50071599 -0.78484598
0.40402233 0.54741301 -0.73287445
0.43649291 0.48206414 -0.75966315
-0.36934793 0.54975735 -0.74923225
-0.29245182 0.56441369 -0.77195150
-0.21335106 0.57404935 -0.79053695
-0.25121101 0.62270625 -0.74103303
-0.13505439 0.58101855 -0.80260685
-0.05597078 0.58709410 -0.80758144
0.02180618 0.59579224 -0.80284251
0.10656621 0.59619647 -0.79573451
0.18220045 0.58906516 -0.78727710
0.33190922 0.56845559 -0.75279115
0.25689387 0.58041925 -0.77273478
-0.17382368 0.63286470 -0.75449824
-0.09565691 0.63831073 -0.76381225
-0.01780061 0.64649437 -0.76271106
0.06382795 0.64732040 -0.75954084
0.14429857 0.64870891 -0.74723134
0.22029799 0.64262809 -0.73382418
-0.08102769 -0.72530129 -0.68364652
-0.15858671 -0.71763586 -0.67812169
-0.00379211 -0.72900017 -0.68450302
0.07202618 -0.72700921 -0.68283954
0.14778459 -0.71918630 -0.67891883
-0.34897090 -0.62854960 -0.69508612
-0.27233199 -0.64759363 -0.71165847
-0.19497840 -0.66251334 -0.72322852
0.26618077 -0.65412178 -0.70800599
0.22323355 -0.71119973 -0.66660463
0.33900561 -0.65242409 -0.67780381
-0.45511134 -0.54186768 -0.70657843
-0.52351914 -0.51486123 -0.67885612
0.43604825 -0.54733158 -0.71434590
0.38816522 -0.60166387 -0.69808907