# vtk DataFile Version 3.0
Example for a surface mesh with scalar data.
ASCII

DATASET UNSTRUCTURED_GRID
POINTS 4 double
0 0 0
1 0 0
1 1 0
0 1 0

CELLS 2 8
3 0 1 2
3 2 3 0

CELL_TYPES 2
5
5

POINT_DATA 4
SCALARS pressure double 1
LOOKUP_TABLE default
0.5
1.0
1.0
0.5
