# vtk DataFile Version 3.0
Visualize mesh data
ASCII

DATASET UNSTRUCTURED_GRID
POINTS 19 double
0 0 0
0.165 0 0
0.0825 0.142894 0
-0.0825 0.142894 0
-0.165 2.02067e-17 0
-0.0825 -0.142894 0
0.0825 -0.142894 0
0.33 0 0
0.285788 0.165 0
0.165 0.285788 0
2.02067e-17 0.33 0
-0.165 0.285788 0
-0.285788 0.165 0
-0.33 4.04133e-17 0
-0.285788 -0.165 0
-0.165 -0.285788 0
-6.062e-17 -0.33 0
0.165 -0.285788 0
0.285788 -0.165 0

CELLS 4 16
3 1 2 0
3 2 3 0
3 3 4 0
3 4 5 0

CELL_TYPES 4
5
5
5
5

POINT_DATA 19
SCALARS pressure double 1
LOOKUP_TABLE default
0
0
0
0
0
0
0
0
0
0
0
0
0
0
0
0
0
0
0

